------------------------------------------------------------
          Invoking FHI-aims ...

          When using FHI-aims, please cite the following reference:

            Volker Blum, Ralf Gehrke, Felix Hanke, Paula Havu,
            Ville Havu, Xinguo Ren, Karsten Reuter, and Matthias Scheffler,
            'Ab Initio Molecular Simulations with Numeric Atom-Centered Orbitals',
            Computer Physics Communications 180, 2175-2196 (2009)

          In addition, many other developments in FHI-aims are likely important for
          your particular application. A partial list of references is given at the end of
          this file. Thank you for giving credit to the authors of these developments.

          For any questions about FHI-aims, please visit our slack channel at

            https://fhi-aims.slack.com

          and our main development and support site at

            https://aims-git.rz-berlin.mpg.de .

          The latter site, in particular, has a wiki to collect information, as well
          as an issue tracker to log discussions, suggest improvements, and report issues
          or bugs. https://aims-git.rz-berlin.mpg.de is also the main development site
          of the project and all new and updated code versions can be obtained there.
          Please send an email to aims-coordinators@fhi-berlin.mpg.de and we will add
          you to these sites. They are for you and everyone is welcome there.

------------------------------------------------------------



  Date     :  20220228, Time     :  142743.051
  Time zero on CPU 1             :   0.374418000000000E+00  s.
  Internal wall clock time zero  :           415290463.051  s.

  FHI-aims created a unique identifier for this run for later identification
  aims_uuid : FD45911A-B5B5-4628-A93E-5490F487409A

  Build configuration of the current instance of FHI-aims
  -------------------------------------------------------
  FHI-aims version      : 210716.2
  Commit number         : GITDIR-NOTFOUND
  CMake host system     : Linux-3.10.0-957.el7.x86_64
  CMake version         : 3.16.2
  Fortran compiler      : /public/software/compiler/intel/oneapi/mpi/2021.3.0/bin/mpiifort (Intel) version 20.2.3.20210609
  Fortran compiler flags: -O3 -ip -fp-model precise
  C compiler            : /public/software/compiler/intel/oneapi/compiler/2021.3.0/linux/bin/intel64/icc (Intel) version 20.2.3.20210609
  C compiler flags      : -O3 -ip -fp-model precise -std=gnu99
  ELPA2 kernel          : AVX2
  Using MPI
  Using ScaLAPACK
  Using LibXC
  Using i-PI
  Using RLSY
  Linking against: /public/software/compiler/intel/oneapi/mkl/2021.3.0/lib/intel64/libmkl_intel_lp64.so
                   /public/software/compiler/intel/oneapi/mkl/2021.3.0/lib/intel64/libmkl_sequential.so
                   /public/software/compiler/intel/oneapi/mkl/2021.3.0/lib/intel64/libmkl_core.so
                   /public/software/compiler/intel/oneapi/mkl/2021.3.0/lib/intel64/libmkl_blacs_intelmpi_lp64.so
                   /public/software/compiler/intel/oneapi/mkl/2021.3.0/lib/intel64/libmkl_scalapack_lp64.so

  Using     1024 parallel tasks.
  Task        0 on host f03r4n05 reporting.
  Task        1 on host f03r4n05 reporting.
  Task        2 on host f03r4n05 reporting.
  Task        3 on host f03r4n05 reporting.
  Task        4 on host f03r4n05 reporting.
  Task        5 on host f03r4n05 reporting.
  Task        6 on host f03r4n05 reporting.
  Task        7 on host f03r4n05 reporting.
  Task        8 on host f03r4n05 reporting.
  Task        9 on host f03r4n05 reporting.
  Task       10 on host f03r4n05 reporting.
  Task       11 on host f03r4n05 reporting.
  Task       12 on host f03r4n05 reporting.
  Task       13 on host f03r4n05 reporting.
  Task       14 on host f03r4n05 reporting.
  Task       15 on host f03r4n05 reporting.
  Task       16 on host f03r4n05 reporting.
  Task       17 on host f03r4n05 reporting.
  Task       18 on host f03r4n05 reporting.
  Task       19 on host f03r4n05 reporting.
  Task       20 on host f03r4n05 reporting.
  Task       21 on host f03r4n05 reporting.
  Task       22 on host f03r4n05 reporting.
  Task       23 on host f03r4n05 reporting.
  Task       24 on host f03r4n05 reporting.
  Task       25 on host f03r4n05 reporting.
  Task       26 on host f03r4n05 reporting.
  Task       27 on host f03r4n05 reporting.
  Task       28 on host f03r4n05 reporting.
  Task       29 on host f03r4n05 reporting.
  Task       30 on host f03r4n05 reporting.
  Task       31 on host f03r4n05 reporting.
  Task       32 on host f03r4n06 reporting.
  Task       33 on host f03r4n06 reporting.
  Task       34 on host f03r4n06 reporting.
  Task       35 on host f03r4n06 reporting.
  Task       36 on host f03r4n06 reporting.
  Task       37 on host f03r4n06 reporting.
  Task       38 on host f03r4n06 reporting.
  Task       39 on host f03r4n06 reporting.
  Task       40 on host f03r4n06 reporting.
  Task       41 on host f03r4n06 reporting.
  Task       42 on host f03r4n06 reporting.
  Task       43 on host f03r4n06 reporting.
  Task       44 on host f03r4n06 reporting.
  Task       45 on host f03r4n06 reporting.
  Task       46 on host f03r4n06 reporting.
  Task       47 on host f03r4n06 reporting.
  Task       48 on host f03r4n06 reporting.
  Task       49 on host f03r4n06 reporting.
  Task       50 on host f03r4n06 reporting.
  Task       51 on host f03r4n06 reporting.
  Task       52 on host f03r4n06 reporting.
  Task       53 on host f03r4n06 reporting.
  Task       54 on host f03r4n06 reporting.
  Task       55 on host f03r4n06 reporting.
  Task       56 on host f03r4n06 reporting.
  Task       57 on host f03r4n06 reporting.
  Task       58 on host f03r4n06 reporting.
  Task       59 on host f03r4n06 reporting.
  Task       60 on host f03r4n06 reporting.
  Task       61 on host f03r4n06 reporting.
  Task       62 on host f03r4n06 reporting.
  Task       63 on host f03r4n06 reporting.
  Task       64 on host f03r4n07 reporting.
  Task       65 on host f03r4n07 reporting.
  Task       66 on host f03r4n07 reporting.
  Task       67 on host f03r4n07 reporting.
  Task       68 on host f03r4n07 reporting.
  Task       69 on host f03r4n07 reporting.
  Task       70 on host f03r4n07 reporting.
  Task       71 on host f03r4n07 reporting.
  Task       72 on host f03r4n07 reporting.
  Task       73 on host f03r4n07 reporting.
  Task       74 on host f03r4n07 reporting.
  Task       75 on host f03r4n07 reporting.
  Task       76 on host f03r4n07 reporting.
  Task       77 on host f03r4n07 reporting.
  Task       78 on host f03r4n07 reporting.
  Task       79 on host f03r4n07 reporting.
  Task       80 on host f03r4n07 reporting.
  Task       81 on host f03r4n07 reporting.
  Task       82 on host f03r4n07 reporting.
  Task       83 on host f03r4n07 reporting.
  Task       84 on host f03r4n07 reporting.
  Task       85 on host f03r4n07 reporting.
  Task       86 on host f03r4n07 reporting.
  Task       87 on host f03r4n07 reporting.
  Task       88 on host f03r4n07 reporting.
  Task       89 on host f03r4n07 reporting.
  Task       90 on host f03r4n07 reporting.
  Task       91 on host f03r4n07 reporting.
  Task       92 on host f03r4n07 reporting.
  Task       93 on host f03r4n07 reporting.
  Task       94 on host f03r4n07 reporting.
  Task       95 on host f03r4n07 reporting.
  Task       96 on host f03r4n08 reporting.
  Task       97 on host f03r4n08 reporting.
  Task       98 on host f03r4n08 reporting.
  Task       99 on host f03r4n08 reporting.
  Task      100 on host f03r4n08 reporting.
  Task      101 on host f03r4n08 reporting.
  Task      102 on host f03r4n08 reporting.
  Task      103 on host f03r4n08 reporting.
  Task      104 on host f03r4n08 reporting.
  Task      105 on host f03r4n08 reporting.
  Task      106 on host f03r4n08 reporting.
  Task      107 on host f03r4n08 reporting.
  Task      108 on host f03r4n08 reporting.
  Task      109 on host f03r4n08 reporting.
  Task      110 on host f03r4n08 reporting.
  Task      111 on host f03r4n08 reporting.
  Task      112 on host f03r4n08 reporting.
  Task      113 on host f03r4n08 reporting.
  Task      114 on host f03r4n08 reporting.
  Task      115 on host f03r4n08 reporting.
  Task      116 on host f03r4n08 reporting.
  Task      117 on host f03r4n08 reporting.
  Task      118 on host f03r4n08 reporting.
  Task      119 on host f03r4n08 reporting.
  Task      120 on host f03r4n08 reporting.
  Task      121 on host f03r4n08 reporting.
  Task      122 on host f03r4n08 reporting.
  Task      123 on host f03r4n08 reporting.
  Task      124 on host f03r4n08 reporting.
  Task      125 on host f03r4n08 reporting.
  Task      126 on host f03r4n08 reporting.
  Task      127 on host f03r4n08 reporting.
  Task      128 on host f03r4n09 reporting.
  Task      129 on host f03r4n09 reporting.
  Task      130 on host f03r4n09 reporting.
  Task      131 on host f03r4n09 reporting.
  Task      132 on host f03r4n09 reporting.
  Task      133 on host f03r4n09 reporting.
  Task      134 on host f03r4n09 reporting.
  Task      135 on host f03r4n09 reporting.
  Task      136 on host f03r4n09 reporting.
  Task      137 on host f03r4n09 reporting.
  Task      138 on host f03r4n09 reporting.
  Task      139 on host f03r4n09 reporting.
  Task      140 on host f03r4n09 reporting.
  Task      141 on host f03r4n09 reporting.
  Task      142 on host f03r4n09 reporting.
  Task      143 on host f03r4n09 reporting.
  Task      144 on host f03r4n09 reporting.
  Task      145 on host f03r4n09 reporting.
  Task      146 on host f03r4n09 reporting.
  Task      147 on host f03r4n09 reporting.
  Task      148 on host f03r4n09 reporting.
  Task      149 on host f03r4n09 reporting.
  Task      150 on host f03r4n09 reporting.
  Task      151 on host f03r4n09 reporting.
  Task      152 on host f03r4n09 reporting.
  Task      153 on host f03r4n09 reporting.
  Task      154 on host f03r4n09 reporting.
  Task      155 on host f03r4n09 reporting.
  Task      156 on host f03r4n09 reporting.
  Task      157 on host f03r4n09 reporting.
  Task      158 on host f03r4n09 reporting.
  Task      159 on host f03r4n09 reporting.
  Task      160 on host f03r4n10 reporting.
  Task      161 on host f03r4n10 reporting.
  Task      162 on host f03r4n10 reporting.
  Task      163 on host f03r4n10 reporting.
  Task      164 on host f03r4n10 reporting.
  Task      165 on host f03r4n10 reporting.
  Task      166 on host f03r4n10 reporting.
  Task      167 on host f03r4n10 reporting.
  Task      168 on host f03r4n10 reporting.
  Task      169 on host f03r4n10 reporting.
  Task      170 on host f03r4n10 reporting.
  Task      171 on host f03r4n10 reporting.
  Task      172 on host f03r4n10 reporting.
  Task      173 on host f03r4n10 reporting.
  Task      174 on host f03r4n10 reporting.
  Task      175 on host f03r4n10 reporting.
  Task      176 on host f03r4n10 reporting.
  Task      177 on host f03r4n10 reporting.
  Task      178 on host f03r4n10 reporting.
  Task      179 on host f03r4n10 reporting.
  Task      180 on host f03r4n10 reporting.
  Task      181 on host f03r4n10 reporting.
  Task      182 on host f03r4n10 reporting.
  Task      183 on host f03r4n10 reporting.
  Task      184 on host f03r4n10 reporting.
  Task      185 on host f03r4n10 reporting.
  Task      186 on host f03r4n10 reporting.
  Task      187 on host f03r4n10 reporting.
  Task      188 on host f03r4n10 reporting.
  Task      189 on host f03r4n10 reporting.
  Task      190 on host f03r4n10 reporting.
  Task      191 on host f03r4n10 reporting.
  Task      192 on host f03r4n11 reporting.
  Task      193 on host f03r4n11 reporting.
  Task      194 on host f03r4n11 reporting.
  Task      195 on host f03r4n11 reporting.
  Task      196 on host f03r4n11 reporting.
  Task      197 on host f03r4n11 reporting.
  Task      198 on host f03r4n11 reporting.
  Task      199 on host f03r4n11 reporting.
  Task      200 on host f03r4n11 reporting.
  Task      201 on host f03r4n11 reporting.
  Task      202 on host f03r4n11 reporting.
  Task      203 on host f03r4n11 reporting.
  Task      204 on host f03r4n11 reporting.
  Task      205 on host f03r4n11 reporting.
  Task      206 on host f03r4n11 reporting.
  Task      207 on host f03r4n11 reporting.
  Task      208 on host f03r4n11 reporting.
  Task      209 on host f03r4n11 reporting.
  Task      210 on host f03r4n11 reporting.
  Task      211 on host f03r4n11 reporting.
  Task      212 on host f03r4n11 reporting.
  Task      213 on host f03r4n11 reporting.
  Task      214 on host f03r4n11 reporting.
  Task      215 on host f03r4n11 reporting.
  Task      216 on host f03r4n11 reporting.
  Task      217 on host f03r4n11 reporting.
  Task      218 on host f03r4n11 reporting.
  Task      219 on host f03r4n11 reporting.
  Task      220 on host f03r4n11 reporting.
  Task      221 on host f03r4n11 reporting.
  Task      222 on host f03r4n11 reporting.
  Task      223 on host f03r4n11 reporting.
  Task      224 on host f03r4n12 reporting.
  Task      225 on host f03r4n12 reporting.
  Task      226 on host f03r4n12 reporting.
  Task      227 on host f03r4n12 reporting.
  Task      228 on host f03r4n12 reporting.
  Task      229 on host f03r4n12 reporting.
  Task      230 on host f03r4n12 reporting.
  Task      231 on host f03r4n12 reporting.
  Task      232 on host f03r4n12 reporting.
  Task      233 on host f03r4n12 reporting.
  Task      234 on host f03r4n12 reporting.
  Task      235 on host f03r4n12 reporting.
  Task      236 on host f03r4n12 reporting.
  Task      237 on host f03r4n12 reporting.
  Task      238 on host f03r4n12 reporting.
  Task      239 on host f03r4n12 reporting.
  Task      240 on host f03r4n12 reporting.
  Task      241 on host f03r4n12 reporting.
  Task      242 on host f03r4n12 reporting.
  Task      243 on host f03r4n12 reporting.
  Task      244 on host f03r4n12 reporting.
  Task      245 on host f03r4n12 reporting.
  Task      246 on host f03r4n12 reporting.
  Task      247 on host f03r4n12 reporting.
  Task      248 on host f03r4n12 reporting.
  Task      249 on host f03r4n12 reporting.
  Task      250 on host f03r4n12 reporting.
  Task      251 on host f03r4n12 reporting.
  Task      252 on host f03r4n12 reporting.
  Task      253 on host f03r4n12 reporting.
  Task      254 on host f03r4n12 reporting.
  Task      255 on host f03r4n12 reporting.
  Task      256 on host f03r4n13 reporting.
  Task      257 on host f03r4n13 reporting.
  Task      258 on host f03r4n13 reporting.
  Task      259 on host f03r4n13 reporting.
  Task      260 on host f03r4n13 reporting.
  Task      261 on host f03r4n13 reporting.
  Task      262 on host f03r4n13 reporting.
  Task      263 on host f03r4n13 reporting.
  Task      264 on host f03r4n13 reporting.
  Task      265 on host f03r4n13 reporting.
  Task      266 on host f03r4n13 reporting.
  Task      267 on host f03r4n13 reporting.
  Task      268 on host f03r4n13 reporting.
  Task      269 on host f03r4n13 reporting.
  Task      270 on host f03r4n13 reporting.
  Task      271 on host f03r4n13 reporting.
  Task      272 on host f03r4n13 reporting.
  Task      273 on host f03r4n13 reporting.
  Task      274 on host f03r4n13 reporting.
  Task      275 on host f03r4n13 reporting.
  Task      276 on host f03r4n13 reporting.
  Task      277 on host f03r4n13 reporting.
  Task      278 on host f03r4n13 reporting.
  Task      279 on host f03r4n13 reporting.
  Task      280 on host f03r4n13 reporting.
  Task      281 on host f03r4n13 reporting.
  Task      282 on host f03r4n13 reporting.
  Task      283 on host f03r4n13 reporting.
  Task      284 on host f03r4n13 reporting.
  Task      285 on host f03r4n13 reporting.
  Task      286 on host f03r4n13 reporting.
  Task      287 on host f03r4n13 reporting.
  Task      288 on host f03r4n14 reporting.
  Task      289 on host f03r4n14 reporting.
  Task      290 on host f03r4n14 reporting.
  Task      291 on host f03r4n14 reporting.
  Task      292 on host f03r4n14 reporting.
  Task      293 on host f03r4n14 reporting.
  Task      294 on host f03r4n14 reporting.
  Task      295 on host f03r4n14 reporting.
  Task      296 on host f03r4n14 reporting.
  Task      297 on host f03r4n14 reporting.
  Task      298 on host f03r4n14 reporting.
  Task      299 on host f03r4n14 reporting.
  Task      300 on host f03r4n14 reporting.
  Task      301 on host f03r4n14 reporting.
  Task      302 on host f03r4n14 reporting.
  Task      303 on host f03r4n14 reporting.
  Task      304 on host f03r4n14 reporting.
  Task      305 on host f03r4n14 reporting.
  Task      306 on host f03r4n14 reporting.
  Task      307 on host f03r4n14 reporting.
  Task      308 on host f03r4n14 reporting.
  Task      309 on host f03r4n14 reporting.
  Task      310 on host f03r4n14 reporting.
  Task      311 on host f03r4n14 reporting.
  Task      312 on host f03r4n14 reporting.
  Task      313 on host f03r4n14 reporting.
  Task      314 on host f03r4n14 reporting.
  Task      315 on host f03r4n14 reporting.
  Task      316 on host f03r4n14 reporting.
  Task      317 on host f03r4n14 reporting.
  Task      318 on host f03r4n14 reporting.
  Task      319 on host f03r4n14 reporting.
  Task      320 on host f03r4n15 reporting.
  Task      321 on host f03r4n15 reporting.
  Task      322 on host f03r4n15 reporting.
  Task      323 on host f03r4n15 reporting.
  Task      324 on host f03r4n15 reporting.
  Task      325 on host f03r4n15 reporting.
  Task      326 on host f03r4n15 reporting.
  Task      327 on host f03r4n15 reporting.
  Task      328 on host f03r4n15 reporting.
  Task      329 on host f03r4n15 reporting.
  Task      330 on host f03r4n15 reporting.
  Task      331 on host f03r4n15 reporting.
  Task      332 on host f03r4n15 reporting.
  Task      333 on host f03r4n15 reporting.
  Task      334 on host f03r4n15 reporting.
  Task      335 on host f03r4n15 reporting.
  Task      336 on host f03r4n15 reporting.
  Task      337 on host f03r4n15 reporting.
  Task      338 on host f03r4n15 reporting.
  Task      339 on host f03r4n15 reporting.
  Task      340 on host f03r4n15 reporting.
  Task      341 on host f03r4n15 reporting.
  Task      342 on host f03r4n15 reporting.
  Task      343 on host f03r4n15 reporting.
  Task      344 on host f03r4n15 reporting.
  Task      345 on host f03r4n15 reporting.
  Task      346 on host f03r4n15 reporting.
  Task      347 on host f03r4n15 reporting.
  Task      348 on host f03r4n15 reporting.
  Task      349 on host f03r4n15 reporting.
  Task      350 on host f03r4n15 reporting.
  Task      351 on host f03r4n15 reporting.
  Task      352 on host f03r4n16 reporting.
  Task      353 on host f03r4n16 reporting.
  Task      354 on host f03r4n16 reporting.
  Task      355 on host f03r4n16 reporting.
  Task      356 on host f03r4n16 reporting.
  Task      357 on host f03r4n16 reporting.
  Task      358 on host f03r4n16 reporting.
  Task      359 on host f03r4n16 reporting.
  Task      360 on host f03r4n16 reporting.
  Task      361 on host f03r4n16 reporting.
  Task      362 on host f03r4n16 reporting.
  Task      363 on host f03r4n16 reporting.
  Task      364 on host f03r4n16 reporting.
  Task      365 on host f03r4n16 reporting.
  Task      366 on host f03r4n16 reporting.
  Task      367 on host f03r4n16 reporting.
  Task      368 on host f03r4n16 reporting.
  Task      369 on host f03r4n16 reporting.
  Task      370 on host f03r4n16 reporting.
  Task      371 on host f03r4n16 reporting.
  Task      372 on host f03r4n16 reporting.
  Task      373 on host f03r4n16 reporting.
  Task      374 on host f03r4n16 reporting.
  Task      375 on host f03r4n16 reporting.
  Task      376 on host f03r4n16 reporting.
  Task      377 on host f03r4n16 reporting.
  Task      378 on host f03r4n16 reporting.
  Task      379 on host f03r4n16 reporting.
  Task      380 on host f03r4n16 reporting.
  Task      381 on host f03r4n16 reporting.
  Task      382 on host f03r4n16 reporting.
  Task      383 on host f03r4n16 reporting.
  Task      384 on host f03r4n17 reporting.
  Task      385 on host f03r4n17 reporting.
  Task      386 on host f03r4n17 reporting.
  Task      387 on host f03r4n17 reporting.
  Task      388 on host f03r4n17 reporting.
  Task      389 on host f03r4n17 reporting.
  Task      390 on host f03r4n17 reporting.
  Task      391 on host f03r4n17 reporting.
  Task      392 on host f03r4n17 reporting.
  Task      393 on host f03r4n17 reporting.
  Task      394 on host f03r4n17 reporting.
  Task      395 on host f03r4n17 reporting.
  Task      396 on host f03r4n17 reporting.
  Task      397 on host f03r4n17 reporting.
  Task      398 on host f03r4n17 reporting.
  Task      399 on host f03r4n17 reporting.
  Task      400 on host f03r4n17 reporting.
  Task      401 on host f03r4n17 reporting.
  Task      402 on host f03r4n17 reporting.
  Task      403 on host f03r4n17 reporting.
  Task      404 on host f03r4n17 reporting.
  Task      405 on host f03r4n17 reporting.
  Task      406 on host f03r4n17 reporting.
  Task      407 on host f03r4n17 reporting.
  Task      408 on host f03r4n17 reporting.
  Task      409 on host f03r4n17 reporting.
  Task      410 on host f03r4n17 reporting.
  Task      411 on host f03r4n17 reporting.
  Task      412 on host f03r4n17 reporting.
  Task      413 on host f03r4n17 reporting.
  Task      414 on host f03r4n17 reporting.
  Task      415 on host f03r4n17 reporting.
  Task      416 on host f03r4n18 reporting.
  Task      417 on host f03r4n18 reporting.
  Task      418 on host f03r4n18 reporting.
  Task      419 on host f03r4n18 reporting.
  Task      420 on host f03r4n18 reporting.
  Task      421 on host f03r4n18 reporting.
  Task      422 on host f03r4n18 reporting.
  Task      423 on host f03r4n18 reporting.
  Task      424 on host f03r4n18 reporting.
  Task      425 on host f03r4n18 reporting.
  Task      426 on host f03r4n18 reporting.
  Task      427 on host f03r4n18 reporting.
  Task      428 on host f03r4n18 reporting.
  Task      429 on host f03r4n18 reporting.
  Task      430 on host f03r4n18 reporting.
  Task      431 on host f03r4n18 reporting.
  Task      432 on host f03r4n18 reporting.
  Task      433 on host f03r4n18 reporting.
  Task      434 on host f03r4n18 reporting.
  Task      435 on host f03r4n18 reporting.
  Task      436 on host f03r4n18 reporting.
  Task      437 on host f03r4n18 reporting.
  Task      438 on host f03r4n18 reporting.
  Task      439 on host f03r4n18 reporting.
  Task      440 on host f03r4n18 reporting.
  Task      441 on host f03r4n18 reporting.
  Task      442 on host f03r4n18 reporting.
  Task      443 on host f03r4n18 reporting.
  Task      444 on host f03r4n18 reporting.
  Task      445 on host f03r4n18 reporting.
  Task      446 on host f03r4n18 reporting.
  Task      447 on host f03r4n18 reporting.
  Task      448 on host f03r4n19 reporting.
  Task      449 on host f03r4n19 reporting.
  Task      450 on host f03r4n19 reporting.
  Task      451 on host f03r4n19 reporting.
  Task      452 on host f03r4n19 reporting.
  Task      453 on host f03r4n19 reporting.
  Task      454 on host f03r4n19 reporting.
  Task      455 on host f03r4n19 reporting.
  Task      456 on host f03r4n19 reporting.
  Task      457 on host f03r4n19 reporting.
  Task      458 on host f03r4n19 reporting.
  Task      459 on host f03r4n19 reporting.
  Task      460 on host f03r4n19 reporting.
  Task      461 on host f03r4n19 reporting.
  Task      462 on host f03r4n19 reporting.
  Task      463 on host f03r4n19 reporting.
  Task      464 on host f03r4n19 reporting.
  Task      465 on host f03r4n19 reporting.
  Task      466 on host f03r4n19 reporting.
  Task      467 on host f03r4n19 reporting.
  Task      468 on host f03r4n19 reporting.
  Task      469 on host f03r4n19 reporting.
  Task      470 on host f03r4n19 reporting.
  Task      471 on host f03r4n19 reporting.
  Task      472 on host f03r4n19 reporting.
  Task      473 on host f03r4n19 reporting.
  Task      474 on host f03r4n19 reporting.
  Task      475 on host f03r4n19 reporting.
  Task      476 on host f03r4n19 reporting.
  Task      477 on host f03r4n19 reporting.
  Task      478 on host f03r4n19 reporting.
  Task      479 on host f03r4n19 reporting.
  Task      480 on host f04r1n00 reporting.
  Task      481 on host f04r1n00 reporting.
  Task      482 on host f04r1n00 reporting.
  Task      483 on host f04r1n00 reporting.
  Task      484 on host f04r1n00 reporting.
  Task      485 on host f04r1n00 reporting.
  Task      486 on host f04r1n00 reporting.
  Task      487 on host f04r1n00 reporting.
  Task      488 on host f04r1n00 reporting.
  Task      489 on host f04r1n00 reporting.
  Task      490 on host f04r1n00 reporting.
  Task      491 on host f04r1n00 reporting.
  Task      492 on host f04r1n00 reporting.
  Task      493 on host f04r1n00 reporting.
  Task      494 on host f04r1n00 reporting.
  Task      495 on host f04r1n00 reporting.
  Task      496 on host f04r1n00 reporting.
  Task      497 on host f04r1n00 reporting.
  Task      498 on host f04r1n00 reporting.
  Task      499 on host f04r1n00 reporting.
  Task      500 on host f04r1n00 reporting.
  Task      501 on host f04r1n00 reporting.
  Task      502 on host f04r1n00 reporting.
  Task      503 on host f04r1n00 reporting.
  Task      504 on host f04r1n00 reporting.
  Task      505 on host f04r1n00 reporting.
  Task      506 on host f04r1n00 reporting.
  Task      507 on host f04r1n00 reporting.
  Task      508 on host f04r1n00 reporting.
  Task      509 on host f04r1n00 reporting.
  Task      510 on host f04r1n00 reporting.
  Task      511 on host f04r1n00 reporting.
  Task      512 on host f04r1n01 reporting.
  Task      513 on host f04r1n01 reporting.
  Task      514 on host f04r1n01 reporting.
  Task      515 on host f04r1n01 reporting.
  Task      516 on host f04r1n01 reporting.
  Task      517 on host f04r1n01 reporting.
  Task      518 on host f04r1n01 reporting.
  Task      519 on host f04r1n01 reporting.
  Task      520 on host f04r1n01 reporting.
  Task      521 on host f04r1n01 reporting.
  Task      522 on host f04r1n01 reporting.
  Task      523 on host f04r1n01 reporting.
  Task      524 on host f04r1n01 reporting.
  Task      525 on host f04r1n01 reporting.
  Task      526 on host f04r1n01 reporting.
  Task      527 on host f04r1n01 reporting.
  Task      528 on host f04r1n01 reporting.
  Task      529 on host f04r1n01 reporting.
  Task      530 on host f04r1n01 reporting.
  Task      531 on host f04r1n01 reporting.
  Task      532 on host f04r1n01 reporting.
  Task      533 on host f04r1n01 reporting.
  Task      534 on host f04r1n01 reporting.
  Task      535 on host f04r1n01 reporting.
  Task      536 on host f04r1n01 reporting.
  Task      537 on host f04r1n01 reporting.
  Task      538 on host f04r1n01 reporting.
  Task      539 on host f04r1n01 reporting.
  Task      540 on host f04r1n01 reporting.
  Task      541 on host f04r1n01 reporting.
  Task      542 on host f04r1n01 reporting.
  Task      543 on host f04r1n01 reporting.
  Task      544 on host f04r1n02 reporting.
  Task      545 on host f04r1n02 reporting.
  Task      546 on host f04r1n02 reporting.
  Task      547 on host f04r1n02 reporting.
  Task      548 on host f04r1n02 reporting.
  Task      549 on host f04r1n02 reporting.
  Task      550 on host f04r1n02 reporting.
  Task      551 on host f04r1n02 reporting.
  Task      552 on host f04r1n02 reporting.
  Task      553 on host f04r1n02 reporting.
  Task      554 on host f04r1n02 reporting.
  Task      555 on host f04r1n02 reporting.
  Task      556 on host f04r1n02 reporting.
  Task      557 on host f04r1n02 reporting.
  Task      558 on host f04r1n02 reporting.
  Task      559 on host f04r1n02 reporting.
  Task      560 on host f04r1n02 reporting.
  Task      561 on host f04r1n02 reporting.
  Task      562 on host f04r1n02 reporting.
  Task      563 on host f04r1n02 reporting.
  Task      564 on host f04r1n02 reporting.
  Task      565 on host f04r1n02 reporting.
  Task      566 on host f04r1n02 reporting.
  Task      567 on host f04r1n02 reporting.
  Task      568 on host f04r1n02 reporting.
  Task      569 on host f04r1n02 reporting.
  Task      570 on host f04r1n02 reporting.
  Task      571 on host f04r1n02 reporting.
  Task      572 on host f04r1n02 reporting.
  Task      573 on host f04r1n02 reporting.
  Task      574 on host f04r1n02 reporting.
  Task      575 on host f04r1n02 reporting.
  Task      576 on host f04r1n03 reporting.
  Task      577 on host f04r1n03 reporting.
  Task      578 on host f04r1n03 reporting.
  Task      579 on host f04r1n03 reporting.
  Task      580 on host f04r1n03 reporting.
  Task      581 on host f04r1n03 reporting.
  Task      582 on host f04r1n03 reporting.
  Task      583 on host f04r1n03 reporting.
  Task      584 on host f04r1n03 reporting.
  Task      585 on host f04r1n03 reporting.
  Task      586 on host f04r1n03 reporting.
  Task      587 on host f04r1n03 reporting.
  Task      588 on host f04r1n03 reporting.
  Task      589 on host f04r1n03 reporting.
  Task      590 on host f04r1n03 reporting.
  Task      591 on host f04r1n03 reporting.
  Task      592 on host f04r1n03 reporting.
  Task      593 on host f04r1n03 reporting.
  Task      594 on host f04r1n03 reporting.
  Task      595 on host f04r1n03 reporting.
  Task      596 on host f04r1n03 reporting.
  Task      597 on host f04r1n03 reporting.
  Task      598 on host f04r1n03 reporting.
  Task      599 on host f04r1n03 reporting.
  Task      600 on host f04r1n03 reporting.
  Task      601 on host f04r1n03 reporting.
  Task      602 on host f04r1n03 reporting.
  Task      603 on host f04r1n03 reporting.
  Task      604 on host f04r1n03 reporting.
  Task      605 on host f04r1n03 reporting.
  Task      606 on host f04r1n03 reporting.
  Task      607 on host f04r1n03 reporting.
  Task      608 on host f04r1n04 reporting.
  Task      609 on host f04r1n04 reporting.
  Task      610 on host f04r1n04 reporting.
  Task      611 on host f04r1n04 reporting.
  Task      612 on host f04r1n04 reporting.
  Task      613 on host f04r1n04 reporting.
  Task      614 on host f04r1n04 reporting.
  Task      615 on host f04r1n04 reporting.
  Task      616 on host f04r1n04 reporting.
  Task      617 on host f04r1n04 reporting.
  Task      618 on host f04r1n04 reporting.
  Task      619 on host f04r1n04 reporting.
  Task      620 on host f04r1n04 reporting.
  Task      621 on host f04r1n04 reporting.
  Task      622 on host f04r1n04 reporting.
  Task      623 on host f04r1n04 reporting.
  Task      624 on host f04r1n04 reporting.
  Task      625 on host f04r1n04 reporting.
  Task      626 on host f04r1n04 reporting.
  Task      627 on host f04r1n04 reporting.
  Task      628 on host f04r1n04 reporting.
  Task      629 on host f04r1n04 reporting.
  Task      630 on host f04r1n04 reporting.
  Task      631 on host f04r1n04 reporting.
  Task      632 on host f04r1n04 reporting.
  Task      633 on host f04r1n04 reporting.
  Task      634 on host f04r1n04 reporting.
  Task      635 on host f04r1n04 reporting.
  Task      636 on host f04r1n04 reporting.
  Task      637 on host f04r1n04 reporting.
  Task      638 on host f04r1n04 reporting.
  Task      639 on host f04r1n04 reporting.
  Task      640 on host f04r1n05 reporting.
  Task      641 on host f04r1n05 reporting.
  Task      642 on host f04r1n05 reporting.
  Task      643 on host f04r1n05 reporting.
  Task      644 on host f04r1n05 reporting.
  Task      645 on host f04r1n05 reporting.
  Task      646 on host f04r1n05 reporting.
  Task      647 on host f04r1n05 reporting.
  Task      648 on host f04r1n05 reporting.
  Task      649 on host f04r1n05 reporting.
  Task      650 on host f04r1n05 reporting.
  Task      651 on host f04r1n05 reporting.
  Task      652 on host f04r1n05 reporting.
  Task      653 on host f04r1n05 reporting.
  Task      654 on host f04r1n05 reporting.
  Task      655 on host f04r1n05 reporting.
  Task      656 on host f04r1n05 reporting.
  Task      657 on host f04r1n05 reporting.
  Task      658 on host f04r1n05 reporting.
  Task      659 on host f04r1n05 reporting.
  Task      660 on host f04r1n05 reporting.
  Task      661 on host f04r1n05 reporting.
  Task      662 on host f04r1n05 reporting.
  Task      663 on host f04r1n05 reporting.
  Task      664 on host f04r1n05 reporting.
  Task      665 on host f04r1n05 reporting.
  Task      666 on host f04r1n05 reporting.
  Task      667 on host f04r1n05 reporting.
  Task      668 on host f04r1n05 reporting.
  Task      669 on host f04r1n05 reporting.
  Task      670 on host f04r1n05 reporting.
  Task      671 on host f04r1n05 reporting.
  Task      672 on host f04r1n06 reporting.
  Task      673 on host f04r1n06 reporting.
  Task      674 on host f04r1n06 reporting.
  Task      675 on host f04r1n06 reporting.
  Task      676 on host f04r1n06 reporting.
  Task      677 on host f04r1n06 reporting.
  Task      678 on host f04r1n06 reporting.
  Task      679 on host f04r1n06 reporting.
  Task      680 on host f04r1n06 reporting.
  Task      681 on host f04r1n06 reporting.
  Task      682 on host f04r1n06 reporting.
  Task      683 on host f04r1n06 reporting.
  Task      684 on host f04r1n06 reporting.
  Task      685 on host f04r1n06 reporting.
  Task      686 on host f04r1n06 reporting.
  Task      687 on host f04r1n06 reporting.
  Task      688 on host f04r1n06 reporting.
  Task      689 on host f04r1n06 reporting.
  Task      690 on host f04r1n06 reporting.
  Task      691 on host f04r1n06 reporting.
  Task      692 on host f04r1n06 reporting.
  Task      693 on host f04r1n06 reporting.
  Task      694 on host f04r1n06 reporting.
  Task      695 on host f04r1n06 reporting.
  Task      696 on host f04r1n06 reporting.
  Task      697 on host f04r1n06 reporting.
  Task      698 on host f04r1n06 reporting.
  Task      699 on host f04r1n06 reporting.
  Task      700 on host f04r1n06 reporting.
  Task      701 on host f04r1n06 reporting.
  Task      702 on host f04r1n06 reporting.
  Task      703 on host f04r1n06 reporting.
  Task      704 on host f04r1n07 reporting.
  Task      705 on host f04r1n07 reporting.
  Task      706 on host f04r1n07 reporting.
  Task      707 on host f04r1n07 reporting.
  Task      708 on host f04r1n07 reporting.
  Task      709 on host f04r1n07 reporting.
  Task      710 on host f04r1n07 reporting.
  Task      711 on host f04r1n07 reporting.
  Task      712 on host f04r1n07 reporting.
  Task      713 on host f04r1n07 reporting.
  Task      714 on host f04r1n07 reporting.
  Task      715 on host f04r1n07 reporting.
  Task      716 on host f04r1n07 reporting.
  Task      717 on host f04r1n07 reporting.
  Task      718 on host f04r1n07 reporting.
  Task      719 on host f04r1n07 reporting.
  Task      720 on host f04r1n07 reporting.
  Task      721 on host f04r1n07 reporting.
  Task      722 on host f04r1n07 reporting.
  Task      723 on host f04r1n07 reporting.
  Task      724 on host f04r1n07 reporting.
  Task      725 on host f04r1n07 reporting.
  Task      726 on host f04r1n07 reporting.
  Task      727 on host f04r1n07 reporting.
  Task      728 on host f04r1n07 reporting.
  Task      729 on host f04r1n07 reporting.
  Task      730 on host f04r1n07 reporting.
  Task      731 on host f04r1n07 reporting.
  Task      732 on host f04r1n07 reporting.
  Task      733 on host f04r1n07 reporting.
  Task      734 on host f04r1n07 reporting.
  Task      735 on host f04r1n07 reporting.
  Task      736 on host f04r1n08 reporting.
  Task      737 on host f04r1n08 reporting.
  Task      738 on host f04r1n08 reporting.
  Task      739 on host f04r1n08 reporting.
  Task      740 on host f04r1n08 reporting.
  Task      741 on host f04r1n08 reporting.
  Task      742 on host f04r1n08 reporting.
  Task      743 on host f04r1n08 reporting.
  Task      744 on host f04r1n08 reporting.
  Task      745 on host f04r1n08 reporting.
  Task      746 on host f04r1n08 reporting.
  Task      747 on host f04r1n08 reporting.
  Task      748 on host f04r1n08 reporting.
  Task      749 on host f04r1n08 reporting.
  Task      750 on host f04r1n08 reporting.
  Task      751 on host f04r1n08 reporting.
  Task      752 on host f04r1n08 reporting.
  Task      753 on host f04r1n08 reporting.
  Task      754 on host f04r1n08 reporting.
  Task      755 on host f04r1n08 reporting.
  Task      756 on host f04r1n08 reporting.
  Task      757 on host f04r1n08 reporting.
  Task      758 on host f04r1n08 reporting.
  Task      759 on host f04r1n08 reporting.
  Task      760 on host f04r1n08 reporting.
  Task      761 on host f04r1n08 reporting.
  Task      762 on host f04r1n08 reporting.
  Task      763 on host f04r1n08 reporting.
  Task      764 on host f04r1n08 reporting.
  Task      765 on host f04r1n08 reporting.
  Task      766 on host f04r1n08 reporting.
  Task      767 on host f04r1n08 reporting.
  Task      768 on host f04r1n09 reporting.
  Task      769 on host f04r1n09 reporting.
  Task      770 on host f04r1n09 reporting.
  Task      771 on host f04r1n09 reporting.
  Task      772 on host f04r1n09 reporting.
  Task      773 on host f04r1n09 reporting.
  Task      774 on host f04r1n09 reporting.
  Task      775 on host f04r1n09 reporting.
  Task      776 on host f04r1n09 reporting.
  Task      777 on host f04r1n09 reporting.
  Task      778 on host f04r1n09 reporting.
  Task      779 on host f04r1n09 reporting.
  Task      780 on host f04r1n09 reporting.
  Task      781 on host f04r1n09 reporting.
  Task      782 on host f04r1n09 reporting.
  Task      783 on host f04r1n09 reporting.
  Task      784 on host f04r1n09 reporting.
  Task      785 on host f04r1n09 reporting.
  Task      786 on host f04r1n09 reporting.
  Task      787 on host f04r1n09 reporting.
  Task      788 on host f04r1n09 reporting.
  Task      789 on host f04r1n09 reporting.
  Task      790 on host f04r1n09 reporting.
  Task      791 on host f04r1n09 reporting.
  Task      792 on host f04r1n09 reporting.
  Task      793 on host f04r1n09 reporting.
  Task      794 on host f04r1n09 reporting.
  Task      795 on host f04r1n09 reporting.
  Task      796 on host f04r1n09 reporting.
  Task      797 on host f04r1n09 reporting.
  Task      798 on host f04r1n09 reporting.
  Task      799 on host f04r1n09 reporting.
  Task      800 on host f04r1n10 reporting.
  Task      801 on host f04r1n10 reporting.
  Task      802 on host f04r1n10 reporting.
  Task      803 on host f04r1n10 reporting.
  Task      804 on host f04r1n10 reporting.
  Task      805 on host f04r1n10 reporting.
  Task      806 on host f04r1n10 reporting.
  Task      807 on host f04r1n10 reporting.
  Task      808 on host f04r1n10 reporting.
  Task      809 on host f04r1n10 reporting.
  Task      810 on host f04r1n10 reporting.
  Task      811 on host f04r1n10 reporting.
  Task      812 on host f04r1n10 reporting.
  Task      813 on host f04r1n10 reporting.
  Task      814 on host f04r1n10 reporting.
  Task      815 on host f04r1n10 reporting.
  Task      816 on host f04r1n10 reporting.
  Task      817 on host f04r1n10 reporting.
  Task      818 on host f04r1n10 reporting.
  Task      819 on host f04r1n10 reporting.
  Task      820 on host f04r1n10 reporting.
  Task      821 on host f04r1n10 reporting.
  Task      822 on host f04r1n10 reporting.
  Task      823 on host f04r1n10 reporting.
  Task      824 on host f04r1n10 reporting.
  Task      825 on host f04r1n10 reporting.
  Task      826 on host f04r1n10 reporting.
  Task      827 on host f04r1n10 reporting.
  Task      828 on host f04r1n10 reporting.
  Task      829 on host f04r1n10 reporting.
  Task      830 on host f04r1n10 reporting.
  Task      831 on host f04r1n10 reporting.
  Task      832 on host f04r1n11 reporting.
  Task      833 on host f04r1n11 reporting.
  Task      834 on host f04r1n11 reporting.
  Task      835 on host f04r1n11 reporting.
  Task      836 on host f04r1n11 reporting.
  Task      837 on host f04r1n11 reporting.
  Task      838 on host f04r1n11 reporting.
  Task      839 on host f04r1n11 reporting.
  Task      840 on host f04r1n11 reporting.
  Task      841 on host f04r1n11 reporting.
  Task      842 on host f04r1n11 reporting.
  Task      843 on host f04r1n11 reporting.
  Task      844 on host f04r1n11 reporting.
  Task      845 on host f04r1n11 reporting.
  Task      846 on host f04r1n11 reporting.
  Task      847 on host f04r1n11 reporting.
  Task      848 on host f04r1n11 reporting.
  Task      849 on host f04r1n11 reporting.
  Task      850 on host f04r1n11 reporting.
  Task      851 on host f04r1n11 reporting.
  Task      852 on host f04r1n11 reporting.
  Task      853 on host f04r1n11 reporting.
  Task      854 on host f04r1n11 reporting.
  Task      855 on host f04r1n11 reporting.
  Task      856 on host f04r1n11 reporting.
  Task      857 on host f04r1n11 reporting.
  Task      858 on host f04r1n11 reporting.
  Task      859 on host f04r1n11 reporting.
  Task      860 on host f04r1n11 reporting.
  Task      861 on host f04r1n11 reporting.
  Task      862 on host f04r1n11 reporting.
  Task      863 on host f04r1n11 reporting.
  Task      864 on host f04r1n12 reporting.
  Task      865 on host f04r1n12 reporting.
  Task      866 on host f04r1n12 reporting.
  Task      867 on host f04r1n12 reporting.
  Task      868 on host f04r1n12 reporting.
  Task      869 on host f04r1n12 reporting.
  Task      870 on host f04r1n12 reporting.
  Task      871 on host f04r1n12 reporting.
  Task      872 on host f04r1n12 reporting.
  Task      873 on host f04r1n12 reporting.
  Task      874 on host f04r1n12 reporting.
  Task      875 on host f04r1n12 reporting.
  Task      876 on host f04r1n12 reporting.
  Task      877 on host f04r1n12 reporting.
  Task      878 on host f04r1n12 reporting.
  Task      879 on host f04r1n12 reporting.
  Task      880 on host f04r1n12 reporting.
  Task      881 on host f04r1n12 reporting.
  Task      882 on host f04r1n12 reporting.
  Task      883 on host f04r1n12 reporting.
  Task      884 on host f04r1n12 reporting.
  Task      885 on host f04r1n12 reporting.
  Task      886 on host f04r1n12 reporting.
  Task      887 on host f04r1n12 reporting.
  Task      888 on host f04r1n12 reporting.
  Task      889 on host f04r1n12 reporting.
  Task      890 on host f04r1n12 reporting.
  Task      891 on host f04r1n12 reporting.
  Task      892 on host f04r1n12 reporting.
  Task      893 on host f04r1n12 reporting.
  Task      894 on host f04r1n12 reporting.
  Task      895 on host f04r1n12 reporting.
  Task      896 on host f04r1n13 reporting.
  Task      897 on host f04r1n13 reporting.
  Task      898 on host f04r1n13 reporting.
  Task      899 on host f04r1n13 reporting.
  Task      900 on host f04r1n13 reporting.
  Task      901 on host f04r1n13 reporting.
  Task      902 on host f04r1n13 reporting.
  Task      903 on host f04r1n13 reporting.
  Task      904 on host f04r1n13 reporting.
  Task      905 on host f04r1n13 reporting.
  Task      906 on host f04r1n13 reporting.
  Task      907 on host f04r1n13 reporting.
  Task      908 on host f04r1n13 reporting.
  Task      909 on host f04r1n13 reporting.
  Task      910 on host f04r1n13 reporting.
  Task      911 on host f04r1n13 reporting.
  Task      912 on host f04r1n13 reporting.
  Task      913 on host f04r1n13 reporting.
  Task      914 on host f04r1n13 reporting.
  Task      915 on host f04r1n13 reporting.
  Task      916 on host f04r1n13 reporting.
  Task      917 on host f04r1n13 reporting.
  Task      918 on host f04r1n13 reporting.
  Task      919 on host f04r1n13 reporting.
  Task      920 on host f04r1n13 reporting.
  Task      921 on host f04r1n13 reporting.
  Task      922 on host f04r1n13 reporting.
  Task      923 on host f04r1n13 reporting.
  Task      924 on host f04r1n13 reporting.
  Task      925 on host f04r1n13 reporting.
  Task      926 on host f04r1n13 reporting.
  Task      927 on host f04r1n13 reporting.
  Task      928 on host f04r1n14 reporting.
  Task      929 on host f04r1n14 reporting.
  Task      930 on host f04r1n14 reporting.
  Task      931 on host f04r1n14 reporting.
  Task      932 on host f04r1n14 reporting.
  Task      933 on host f04r1n14 reporting.
  Task      934 on host f04r1n14 reporting.
  Task      935 on host f04r1n14 reporting.
  Task      936 on host f04r1n14 reporting.
  Task      937 on host f04r1n14 reporting.
  Task      938 on host f04r1n14 reporting.
  Task      939 on host f04r1n14 reporting.
  Task      940 on host f04r1n14 reporting.
  Task      941 on host f04r1n14 reporting.
  Task      942 on host f04r1n14 reporting.
  Task      943 on host f04r1n14 reporting.
  Task      944 on host f04r1n14 reporting.
  Task      945 on host f04r1n14 reporting.
  Task      946 on host f04r1n14 reporting.
  Task      947 on host f04r1n14 reporting.
  Task      948 on host f04r1n14 reporting.
  Task      949 on host f04r1n14 reporting.
  Task      950 on host f04r1n14 reporting.
  Task      951 on host f04r1n14 reporting.
  Task      952 on host f04r1n14 reporting.
  Task      953 on host f04r1n14 reporting.
  Task      954 on host f04r1n14 reporting.
  Task      955 on host f04r1n14 reporting.
  Task      956 on host f04r1n14 reporting.
  Task      957 on host f04r1n14 reporting.
  Task      958 on host f04r1n14 reporting.
  Task      959 on host f04r1n14 reporting.
  Task      960 on host f04r1n15 reporting.
  Task      961 on host f04r1n15 reporting.
  Task      962 on host f04r1n15 reporting.
  Task      963 on host f04r1n15 reporting.
  Task      964 on host f04r1n15 reporting.
  Task      965 on host f04r1n15 reporting.
  Task      966 on host f04r1n15 reporting.
  Task      967 on host f04r1n15 reporting.
  Task      968 on host f04r1n15 reporting.
  Task      969 on host f04r1n15 reporting.
  Task      970 on host f04r1n15 reporting.
  Task      971 on host f04r1n15 reporting.
  Task      972 on host f04r1n15 reporting.
  Task      973 on host f04r1n15 reporting.
  Task      974 on host f04r1n15 reporting.
  Task      975 on host f04r1n15 reporting.
  Task      976 on host f04r1n15 reporting.
  Task      977 on host f04r1n15 reporting.
  Task      978 on host f04r1n15 reporting.
  Task      979 on host f04r1n15 reporting.
  Task      980 on host f04r1n15 reporting.
  Task      981 on host f04r1n15 reporting.
  Task      982 on host f04r1n15 reporting.
  Task      983 on host f04r1n15 reporting.
  Task      984 on host f04r1n15 reporting.
  Task      985 on host f04r1n15 reporting.
  Task      986 on host f04r1n15 reporting.
  Task      987 on host f04r1n15 reporting.
  Task      988 on host f04r1n15 reporting.
  Task      989 on host f04r1n15 reporting.
  Task      990 on host f04r1n15 reporting.
  Task      991 on host f04r1n15 reporting.
  Task      992 on host f04r1n16 reporting.
  Task      993 on host f04r1n16 reporting.
  Task      994 on host f04r1n16 reporting.
  Task      995 on host f04r1n16 reporting.
  Task      996 on host f04r1n16 reporting.
  Task      997 on host f04r1n16 reporting.
  Task      998 on host f04r1n16 reporting.
  Task      999 on host f04r1n16 reporting.
  Task     1000 on host f04r1n16 reporting.
  Task     1001 on host f04r1n16 reporting.
  Task     1002 on host f04r1n16 reporting.
  Task     1003 on host f04r1n16 reporting.
  Task     1004 on host f04r1n16 reporting.
  Task     1005 on host f04r1n16 reporting.
  Task     1006 on host f04r1n16 reporting.
  Task     1007 on host f04r1n16 reporting.
  Task     1008 on host f04r1n16 reporting.
  Task     1009 on host f04r1n16 reporting.
  Task     1010 on host f04r1n16 reporting.
  Task     1011 on host f04r1n16 reporting.
  Task     1012 on host f04r1n16 reporting.
  Task     1013 on host f04r1n16 reporting.
  Task     1014 on host f04r1n16 reporting.
  Task     1015 on host f04r1n16 reporting.
  Task     1016 on host f04r1n16 reporting.
  Task     1017 on host f04r1n16 reporting.
  Task     1018 on host f04r1n16 reporting.
  Task     1019 on host f04r1n16 reporting.
  Task     1020 on host f04r1n16 reporting.
  Task     1021 on host f04r1n16 reporting.
  Task     1022 on host f04r1n16 reporting.
  Task     1023 on host f04r1n16 reporting.

  Performing system and environment tests:
  | Environment variable OMP_NUM_THREADS correctly set to 1.
  | Checking for ScaLAPACK...
  | Testing pdtran()...
  | All pdtran() tests passed.

  Obtaining array dimensions for all initial allocations:
  
  -----------------------------------------------------------------------
  Parsing control.in (first pass over file, find array dimensions only).
  The contents of control.in will be repeated verbatim below
  unless switched off by setting 'verbatim_writeout .false.' .
  in the first line of control.in .
  -----------------------------------------------------------------------
  
    #  Volker Blum, FHI 2004 : Input file for LocalOrb code project
    #
    #  Input file control.in : All computational details for structure geometry.in
    #
    #  * First, general computational parameters:
    #
    #  Physics choices (model):
    #
      xc               pbe
    # qpe_calc         gw_expt
      qpe_calc         gw
      anacon_type      0
      freq_grid_type   GL
    #  qpe_calc         gw
    #  total_energy_method         rpa
      spin             collinear
      relativistic     atomic_zora scalar
      charge     -1.0
      occupation_type  gaussian 0.1
      default_initial_moment  1.0
      RI_method        LVL
    #  packed_matrix_format   none
    #  use_full_symmetry .true.
    #  state_lower_limit 3
    #
    #  SCF cycle:
    #
      KS_method        parallel
      mixer            pulay
        n_max_pulay    5
        charge_mix_param  0.1
      override_illconditioning .true.
    #  preconditioner kerker 2.0
      sc_accuracy_rho  1E-6
      sc_accuracy_eev  1E-4
      sc_accuracy_etot 1E-6
      sc_iter_limit    100
      frequency_points  40
    #
    #  accuracy / efficiency for normal scf
    #
      basis_threshold  1.e-5
    #  distributed_spline_storage .true.
    #
    #  For MP2
    #
    #  hf_version 0
    #  empty_states     1000
    #  prodbas_threshold      1.e-3
    #  auxil_basis     full
    #  partition_acc 1e-20
    #  use_density_matrix_hf   .true.
    #  prodbas_threshold 1.E-3
    #
    #  For periodic
    #
    # k_grid  1 1 1
    #  use_density_matrix
    #  packed_matrix_format index
    #  output k_eigenvalue 1
    #  restart  cu.slab.CO.top.pbe.relax
    #  restart_save_iterations 3
    #
    # For relaxation:
    #
    #  relax_geometry bfgs 1e-2
    #  sc_accuracy_forces 1e-4
    #  * Next, specify output options:
    #    - basis
    #    - matrices
    #    - grids
    #    - v_eff
    #    - v_hartree (partitioned Hartree potentials)
    #
    #  output       basis
    #  output       matrices
    #  output       grids
    #  output       v_eff
    #  output       v_hartree
    #  output band  0.25  0.50  0.75  0.5   0.5   0.5   10 W      L
    #  output band  0.5   0.5   0.5   0.25  0.25  0.25  10 L      Lambda
    #  output band  0.25  0.25  0.25  0     0     0     10        Lambda Gamma
    #  output band  0     0       0   0.00  0.25  0.25  10        Gamma  Delta
    #  output band  0.00  0.25  0.25  0     0.5   0.5   10 Delta  X
    #  output band  0     0.5   0.5   0.125 0.5   0.625 10 X      Z
    #  output band  0.125 0.5   0.625 0.25  0.50  0.75  10 Z      W
    #  output band  0.25  0.50  0.75  0.375 0.375 0.75  10 W      K
    #  output self_energy
    #  output k_eigenvalue 1
    #  output gw_regular_kgrid
    #
  ################################################################################
  #
  #  FHI-aims code project
  # Volker Blum, Fritz Haber Institute Berlin, 2010
  #
  #  Suggested "tight" defaults for Zn atom (to be pasted into control.in file)
  #
  ################################################################################
    species        Zn
  #     global species definitions
      nucleus             30
      mass                65.409
  #
      l_hartree           6
  #
      cut_pot             4.0          2.0  1.0
      basis_dep_cutoff    1e-4
  #
      radial_base         53 7.0
      radial_multiplier   2
      angular_grids       specified
        division   0.4348   50
        division   0.7981  110
        division   1.1328  194
        division   1.3947  302
        division   1.6856  434
  #      division   1.8921  590
  #      division   2.0877  770
  #      division   2.1730  974
  #      division   2.5659 1202
        outer_grid  434
  ################################################################################
  #
  #  Definition of "minimal" basis
  #
  ################################################################################
  #     valence basis states
      valence      4  s   2.0000
      valence      4  p   0.0001
      valence      3  d   9.9999
  #     ion occupancy
      ion_occ      4  s   1.
      ion_occ      3  p   6.
      ion_occ      3  d   9.
  ################################################################################
  #
  #  Suggested additional basis functions. For production calculations,
  #  uncomment them one after another (the most important basis functions are
  #  listed first).
  #
  #  Constructed for dimers: 2.00 A, 2.30 A, 2.85 A, 3.50 A, 4.25 A
  #
  ################################################################################
  #  "First tier" - improvements: -270.82 meV to -12.81 meV
       hydro 2 p 1.7
       hydro 3 s 2.9
       hydro 4 p 5.4
       hydro 4 f 7.8
       hydro 3 d 4.5
  #  "Second tier" - improvements: -3.35 meV to -0.82 meV
       hydro 5 g 10.8
       hydro 2 p 2.4
       hydro 3 s 6.2
       hydro 3 d 3
  #  "Third tier" - improvements: -0.61 meV to -0.12 meV
  #     hydro 6 h 15.2
  #     ionic 4 p auto
  #     hydro 5 s 12.8
  #     hydro 4 f 5.4
  #     hydro 4 d 7
  #  Further functions - improvements: -0.16 meV and below
  #     hydro 4 f 20
  #     hydro 3 p 2.2
  #     hydro 5 f 6.4
  #     hydro 5 g 8
  for_aux hydro 4 f 3.0
  for_aux hydro 5 g 3.0
  ################################################################################
  #
  #  FHI-aims code project
  # Volker Blum, Fritz Haber Institute Berlin, 2009
  #
  #  Suggested "tight" defaults for O atom (to be pasted into control.in file)
  #
  ################################################################################
    species        O
  #     global species definitions
      nucleus             8
      mass                15.9994
  #
      l_hartree           6
  #
      cut_pot             4.0  2.0  1.0
      basis_dep_cutoff    1e-4
  #
      radial_base         36 7.0
      radial_multiplier   2
       angular_grids specified
        division   0.1817   50
        division   0.3417  110
        division   0.4949  194
        division   0.6251  302
        division   0.8014  434
  #      division   0.8507  590
  #      division   0.8762  770
  #      division   0.9023  974
  #      division   1.2339 1202
  #      outer_grid 974
        outer_grid  434
  ################################################################################
  #
  #  Definition of "minimal" basis
  #
  ################################################################################
  #     valence basis states
      valence      2  s   2.
      valence      2  p   4.
  #     ion occupancy
      ion_occ      2  s   1.
      ion_occ      2  p   3.
  ################################################################################
  #
  #  Suggested additional basis functions. For production calculations,
  #  uncomment them one after another (the most important basis functions are
  #  listed first).
  #
  #  Constructed for dimers: 1.0 A, 1.208 A, 1.5 A, 2.0 A, 3.0 A
  #
  ################################################################################
  #  "First tier" - improvements: -699.05 meV to -159.38 meV
       hydro 2 p 1.8
       hydro 3 d 7.6
       hydro 3 s 6.4
  #  "Second tier" - improvements: -49.91 meV to -5.39 meV
       hydro 4 f 11.6
       hydro 3 p 6.2
       hydro 3 d 5.6
       hydro 5 g 17.6
       hydro 1 s 0.75
  #  "Third tier" - improvements: -2.83 meV to -0.50 meV
  #     ionic 2 p auto
  #     hydro 4 f 10.8
  #     hydro 4 d 4.7
  #     hydro 2 s 6.8
  #  "Fourth tier" - improvements: -0.40 meV to -0.12 meV
  #     hydro 3 p 5
  #     hydro 3 s 3.3
  #     hydro 5 g 15.6
  #     hydro 4 f 17.6
  #     hydro 4 d 14
  # Further basis functions - -0.08 meV and below
  #     hydro 3 s 2.1
  #     hydro 4 d 11.6
  #     hydro 3 p 16
  #     hydro 2 s 17.2
  for_aux hydro 4 f 3.0
  for_aux hydro 5 g 3.0
  
  -----------------------------------------------------------------------
  Completed first pass over input file control.in .
  -----------------------------------------------------------------------
  
  
  -----------------------------------------------------------------------
  Parsing geometry.in (first pass over file, find array dimensions only).
  The contents of geometry.in will be repeated verbatim below
  unless switched off by setting 'verbatim_writeout .false.' .
  in the first line of geometry.in .
  -----------------------------------------------------------------------
  
  atom 0.0   0.0     0.50000  Zn
  atom 0.0   0.0     2.48493   O
  
  -----------------------------------------------------------------------
  Completed first pass over input file geometry.in .
  -----------------------------------------------------------------------
  

  Basic array size parameters:
  | Number of species                 :        2
  | Number of atoms                   :        2
  | Max. basis fn. angular momentum   :        4
  | Max. atomic/ionic basis occupied n:        4
  | Max. number of basis fn. types    :        2
  | Max. radial fns per species/type  :       11
  | Max. logarithmic grid size        :     1409
  | Max. radial integration grid size :      107
  | Max. angular integration grid size:      434
  | Max. angular grid division number :        8
  | Radial grid for Hartree potential :     1409
  | Number of spin channels           :        2

------------------------------------------------------------
          Reading file control.in.
------------------------------------------------------------
  XC: Using PBE gradient-corrected functionals.
  GW quasiparticle calculation of excited states will be started after the DFT/HF calculation.
  Using two-pole fitting for analytical continuation.
  Using Gauss-Legendre frequency grid.
  Spin treatment: Spin density functional theory - collinear spins.
  Scalar relativistic treatment of kinetic energy: on-site free-atom approximation to ZORA.
  Charged system requested: Charge =  -0.100000E+01.
  Occupation type: Gaussian broadening, width =   0.100000E+00 eV.
  Initial spin moment per atom:   1.0000
  The 'LVL' version of RI (resolution of identity) technique is used.
  ** This is a localized expansion of all basis function products.
     Its intended use are Hartree-Fock and hybrid functionals.
     For RPA, MP2, GW, etc., LVL is not yet as accurate. In those cases, check carefully.
  Kohn-Sham electronic structure solved by the ELSI library.
  Using pulay charge density mixing.
  Pulay mixing - number of memorized iterations:    5
  Charge density mixing - mixing parameter:     0.1000
  override_illconditioning: Explicitly overriding any built-in checks for an ill-conditioned overlap matrix.
  *** WARNING: If you use this flag, you should really know what you are doing.
  *** DO NOT keep this flag set by default in all your control.in files.
  Convergence accuracy of self-consistent charge density:  0.1000E-05
  Convergence accuracy of sum of eigenvalues:  0.1000E-03
  Convergence accuracy of total energy:  0.1000E-05
  Maximum number of s.-c. iterations  :   100
  Number of frequency points used for the self-energy calculation:     40
  Threshold for basis singularities:  0.1000E-04
 
  Reading configuration options for species Zn                  .
  | Found nuclear charge :  30.0000
  | Found atomic mass :    65.4090000000000      amu
  | Found l_max for Hartree potential  :   6
  | Found cutoff potl. onset [A], width [A], scale factor :    4.00000    2.00000    1.00000
  | Threshold for basis-dependent cutoff potential is   0.100000E-03
  | Found data for basic radial integration grid :    53 points, outermost radius =    7.000 A
  | Found multiplier for basic radial grid :   2
  | Found angular grid specification: user-specified.
  | Specified grid contains     6 separate shells.
  | Check grid settings after all constraints further below.
  | Found free-atom valence shell :  4 s   2.000
  | Found free-atom valence shell :  4 p   0.000
  | Found free-atom valence shell :  3 d  10.000
  | No ionic wave fns used. Skipping ion_occ.
  | No ionic wave fns used. Skipping ion_occ.
  | No ionic wave fns used. Skipping ion_occ.
  | Found hydrogenic basis function :  2 p   1.700
  | Found hydrogenic basis function :  3 s   2.900
  | Found hydrogenic basis function :  4 p   5.400
  | Found hydrogenic basis function :  4 f   7.800
  | Found hydrogenic basis function :  3 d   4.500
  | Found hydrogenic basis function :  5 g  10.800
  | Found hydrogenic basis function :  2 p   2.400
  | Found hydrogenic basis function :  3 s   6.200
  | Found hydrogenic basis function :  3 d   3.000
  | Found hydrogenic extended basis function :  4 f   3.000
  | Found hydrogenic extended basis function :  5 g   3.000
  Species Zn                  : Missing cutoff potential type.
  Defaulting to exp(1/x)/(1-x)^2 type cutoff potential.
  Species Zn: No 'logarithmic' tag. Using default grid for free atom:
  | Default logarithmic grid data [bohr] : 0.1000E-03 0.1000E+03 0.1012E+01
  Species Zn: On-site basis accuracy parameter (for Gram-Schmidt orthonormalisation) not specified.
  Using default value basis_acc =  0.1000000E-03.
  Species Zn                  : Using default innermost maximum threshold i_radial=  2 for radial functions.
  Species Zn                  : Default cutoff onset for free atom density etc. : 0.40000000E+01 AA.
  Species Zn                  : Basic radial grid will be enhanced according to radial_multiplier =   2, to contain   107 grid points.
 
  Reading configuration options for species O                   .
  | Found nuclear charge :   8.0000
  | Found atomic mass :    15.9994000000000      amu
  | Found l_max for Hartree potential  :   6
  | Found cutoff potl. onset [A], width [A], scale factor :    4.00000    2.00000    1.00000
  | Threshold for basis-dependent cutoff potential is   0.100000E-03
  | Found data for basic radial integration grid :    36 points, outermost radius =    7.000 A
  | Found multiplier for basic radial grid :   2
  | Found angular grid specification: user-specified.
  | Specified grid contains     6 separate shells.
  | Check grid settings after all constraints further below.
  | Found free-atom valence shell :  2 s   2.000
  | Found free-atom valence shell :  2 p   4.000
  | No ionic wave fns used. Skipping ion_occ.
  | No ionic wave fns used. Skipping ion_occ.
  | Found hydrogenic basis function :  2 p   1.800
  | Found hydrogenic basis function :  3 d   7.600
  | Found hydrogenic basis function :  3 s   6.400
  | Found hydrogenic basis function :  4 f  11.600
  | Found hydrogenic basis function :  3 p   6.200
  | Found hydrogenic basis function :  3 d   5.600
  | Found hydrogenic basis function :  5 g  17.600
  | Found hydrogenic basis function :  1 s   0.750
  | Found hydrogenic extended basis function :  4 f   3.000
  | Found hydrogenic extended basis function :  5 g   3.000
  Species O                   : Missing cutoff potential type.
  Defaulting to exp(1/x)/(1-x)^2 type cutoff potential.
  Species O : No 'logarithmic' tag. Using default grid for free atom:
  | Default logarithmic grid data [bohr] : 0.1000E-03 0.1000E+03 0.1012E+01
  Species O : On-site basis accuracy parameter (for Gram-Schmidt orthonormalisation) not specified.
  Using default value basis_acc =  0.1000000E-03.
  Species O                   : Using default innermost maximum threshold i_radial=  2 for radial functions.
  Species O                   : Default cutoff onset for free atom density etc. : 0.40000000E+01 AA.
  Species O                   : Basic radial grid will be enhanced according to radial_multiplier =   2, to contain    73 grid points.
 
  Finished reading input file 'control.in'.
 
------------------------------------------------------------


------------------------------------------------------------
          Reading geometry description geometry.in.
------------------------------------------------------------
  | The smallest distance between any two atoms is         1.98493000 AA.
  | The first atom of this pair is atom number                      1 .
  | The second atom of this pair is atom number                     2 .
  Input structure read successfully.
  The structure contains        2 atoms,  and a total of         39.000 electrons.

  Input geometry:
  | No unit cell requested.
  | Atomic structure:
  |       Atom                x [A]            y [A]            z [A]
  |    1: Species Zn            0.00000000        0.00000000        0.50000000
  |    2: Species O             0.00000000        0.00000000        2.48493000

  Initial moments and charges:
  |  Atom   Moment         Charge        Species
  |     1   0.100000E+01   0.000000E+00   Zn
  |     2   0.100000E+01   0.000000E+00   O

 
  Finished reading input file 'control.in'.
 

------------------------------------------------------------
          Reading geometry description geometry.in.
------------------------------------------------------------
 
  Consistency checks for stacksize environment parameter are next.
 
  | Maximum stacksize for task 0: unlimited
  | Maximum stacksize for task 1: unlimited
  | Maximum stacksize for task 2: unlimited
  | Maximum stacksize for task 3: unlimited
  | Maximum stacksize for task 4: unlimited
  | Maximum stacksize for task 5: unlimited
  | Maximum stacksize for task 6: unlimited
  | Maximum stacksize for task 7: unlimited
  | Maximum stacksize for task 8: unlimited
  | Maximum stacksize for task 9: unlimited
  | Maximum stacksize for task 10: unlimited
  | Maximum stacksize for task 11: unlimited
  | Maximum stacksize for task 12: unlimited
  | Maximum stacksize for task 13: unlimited
  | Maximum stacksize for task 14: unlimited
  | Maximum stacksize for task 15: unlimited
  | Maximum stacksize for task 16: unlimited
  | Maximum stacksize for task 17: unlimited
  | Maximum stacksize for task 18: unlimited
  | Maximum stacksize for task 19: unlimited
  | Maximum stacksize for task 20: unlimited
  | Maximum stacksize for task 21: unlimited
  | Maximum stacksize for task 22: unlimited
  | Maximum stacksize for task 23: unlimited
  | Maximum stacksize for task 24: unlimited
  | Maximum stacksize for task 25: unlimited
  | Maximum stacksize for task 26: unlimited
  | Maximum stacksize for task 27: unlimited
  | Maximum stacksize for task 28: unlimited
  | Maximum stacksize for task 29: unlimited
  | Maximum stacksize for task 30: unlimited
  | Maximum stacksize for task 31: unlimited
  | Maximum stacksize for task 32: unlimited
  | Maximum stacksize for task 33: unlimited
  | Maximum stacksize for task 34: unlimited
  | Maximum stacksize for task 35: unlimited
  | Maximum stacksize for task 36: unlimited
  | Maximum stacksize for task 37: unlimited
  | Maximum stacksize for task 38: unlimited
  | Maximum stacksize for task 39: unlimited
  | Maximum stacksize for task 40: unlimited
  | Maximum stacksize for task 41: unlimited
  | Maximum stacksize for task 42: unlimited
  | Maximum stacksize for task 43: unlimited
  | Maximum stacksize for task 44: unlimited
  | Maximum stacksize for task 45: unlimited
  | Maximum stacksize for task 46: unlimited
  | Maximum stacksize for task 47: unlimited
  | Maximum stacksize for task 48: unlimited
  | Maximum stacksize for task 49: unlimited
  | Maximum stacksize for task 50: unlimited
  | Maximum stacksize for task 51: unlimited
  | Maximum stacksize for task 52: unlimited
  | Maximum stacksize for task 53: unlimited
  | Maximum stacksize for task 54: unlimited
  | Maximum stacksize for task 55: unlimited
  | Maximum stacksize for task 56: unlimited
  | Maximum stacksize for task 57: unlimited
  | Maximum stacksize for task 58: unlimited
  | Maximum stacksize for task 59: unlimited
  | Maximum stacksize for task 60: unlimited
  | Maximum stacksize for task 61: unlimited
  | Maximum stacksize for task 62: unlimited
  | Maximum stacksize for task 63: unlimited
  | Maximum stacksize for task 64: unlimited
  | Maximum stacksize for task 65: unlimited
  | Maximum stacksize for task 66: unlimited
  | Maximum stacksize for task 67: unlimited
  | Maximum stacksize for task 68: unlimited
  | Maximum stacksize for task 69: unlimited
  | Maximum stacksize for task 70: unlimited
  | Maximum stacksize for task 71: unlimited
  | Maximum stacksize for task 72: unlimited
  | Maximum stacksize for task 73: unlimited
  | Maximum stacksize for task 74: unlimited
  | Maximum stacksize for task 75: unlimited
  | Maximum stacksize for task 76: unlimited
  | Maximum stacksize for task 77: unlimited
  | Maximum stacksize for task 78: unlimited
  | Maximum stacksize for task 79: unlimited
  | Maximum stacksize for task 80: unlimited
  | Maximum stacksize for task 81: unlimited
  | Maximum stacksize for task 82: unlimited
  | Maximum stacksize for task 83: unlimited
  | Maximum stacksize for task 84: unlimited
  | Maximum stacksize for task 85: unlimited
  | Maximum stacksize for task 86: unlimited
  | Maximum stacksize for task 87: unlimited
  | Maximum stacksize for task 88: unlimited
  | Maximum stacksize for task 89: unlimited
  | Maximum stacksize for task 90: unlimited
  | Maximum stacksize for task 91: unlimited
  | Maximum stacksize for task 92: unlimited
  | Maximum stacksize for task 93: unlimited
  | Maximum stacksize for task 94: unlimited
  | Maximum stacksize for task 95: unlimited
  | Maximum stacksize for task 96: unlimited
  | Maximum stacksize for task 97: unlimited
  | Maximum stacksize for task 98: unlimited
  | Maximum stacksize for task 99: unlimited
  | Maximum stacksize for task 100: unlimited
  | Maximum stacksize for task 101: unlimited
  | Maximum stacksize for task 102: unlimited
  | Maximum stacksize for task 103: unlimited
  | Maximum stacksize for task 104: unlimited
  | Maximum stacksize for task 105: unlimited
  | Maximum stacksize for task 106: unlimited
  | Maximum stacksize for task 107: unlimited
  | Maximum stacksize for task 108: unlimited
  | Maximum stacksize for task 109: unlimited
  | Maximum stacksize for task 110: unlimited
  | Maximum stacksize for task 111: unlimited
  | Maximum stacksize for task 112: unlimited
  | Maximum stacksize for task 113: unlimited
  | Maximum stacksize for task 114: unlimited
  | Maximum stacksize for task 115: unlimited
  | Maximum stacksize for task 116: unlimited
  | Maximum stacksize for task 117: unlimited
  | Maximum stacksize for task 118: unlimited
  | Maximum stacksize for task 119: unlimited
  | Maximum stacksize for task 120: unlimited
  | Maximum stacksize for task 121: unlimited
  | Maximum stacksize for task 122: unlimited
  | Maximum stacksize for task 123: unlimited
  | Maximum stacksize for task 124: unlimited
  | Maximum stacksize for task 125: unlimited
  | Maximum stacksize for task 126: unlimited
  | Maximum stacksize for task 127: unlimited
  | Maximum stacksize for task 128: unlimited
  | Maximum stacksize for task 129: unlimited
  | Maximum stacksize for task 130: unlimited
  | Maximum stacksize for task 131: unlimited
  | Maximum stacksize for task 132: unlimited
  | Maximum stacksize for task 133: unlimited
  | Maximum stacksize for task 134: unlimited
  | Maximum stacksize for task 135: unlimited
  | Maximum stacksize for task 136: unlimited
  | Maximum stacksize for task 137: unlimited
  | Maximum stacksize for task 138: unlimited
  | Maximum stacksize for task 139: unlimited
  | Maximum stacksize for task 140: unlimited
  | Maximum stacksize for task 141: unlimited
  | Maximum stacksize for task 142: unlimited
  | Maximum stacksize for task 143: unlimited
  | Maximum stacksize for task 144: unlimited
  | Maximum stacksize for task 145: unlimited
  | Maximum stacksize for task 146: unlimited
  | Maximum stacksize for task 147: unlimited
  | Maximum stacksize for task 148: unlimited
  | Maximum stacksize for task 149: unlimited
  | Maximum stacksize for task 150: unlimited
  | Maximum stacksize for task 151: unlimited
  | Maximum stacksize for task 152: unlimited
  | Maximum stacksize for task 153: unlimited
  | Maximum stacksize for task 154: unlimited
  | Maximum stacksize for task 155: unlimited
  | Maximum stacksize for task 156: unlimited
  | Maximum stacksize for task 157: unlimited
  | Maximum stacksize for task 158: unlimited
  | Maximum stacksize for task 159: unlimited
  | Maximum stacksize for task 160: unlimited
  | Maximum stacksize for task 161: unlimited
  | Maximum stacksize for task 162: unlimited
  | Maximum stacksize for task 163: unlimited
  | Maximum stacksize for task 164: unlimited
  | Maximum stacksize for task 165: unlimited
  | Maximum stacksize for task 166: unlimited
  | Maximum stacksize for task 167: unlimited
  | Maximum stacksize for task 168: unlimited
  | Maximum stacksize for task 169: unlimited
  | Maximum stacksize for task 170: unlimited
  | Maximum stacksize for task 171: unlimited
  | Maximum stacksize for task 172: unlimited
  | Maximum stacksize for task 173: unlimited
  | Maximum stacksize for task 174: unlimited
  | Maximum stacksize for task 175: unlimited
  | Maximum stacksize for task 176: unlimited
  | Maximum stacksize for task 177: unlimited
  | Maximum stacksize for task 178: unlimited
  | Maximum stacksize for task 179: unlimited
  | Maximum stacksize for task 180: unlimited
  | Maximum stacksize for task 181: unlimited
  | Maximum stacksize for task 182: unlimited
  | Maximum stacksize for task 183: unlimited
  | Maximum stacksize for task 184: unlimited
  | Maximum stacksize for task 185: unlimited
  | Maximum stacksize for task 186: unlimited
  | Maximum stacksize for task 187: unlimited
  | Maximum stacksize for task 188: unlimited
  | Maximum stacksize for task 189: unlimited
  | Maximum stacksize for task 190: unlimited
  | Maximum stacksize for task 191: unlimited
  | Maximum stacksize for task 192: unlimited
  | Maximum stacksize for task 193: unlimited
  | Maximum stacksize for task 194: unlimited
  | Maximum stacksize for task 195: unlimited
  | Maximum stacksize for task 196: unlimited
  | Maximum stacksize for task 197: unlimited
  | Maximum stacksize for task 198: unlimited
  | Maximum stacksize for task 199: unlimited
  | Maximum stacksize for task 200: unlimited
  | Maximum stacksize for task 201: unlimited
  | Maximum stacksize for task 202: unlimited
  | Maximum stacksize for task 203: unlimited
  | Maximum stacksize for task 204: unlimited
  | Maximum stacksize for task 205: unlimited
  | Maximum stacksize for task 206: unlimited
  | Maximum stacksize for task 207: unlimited
  | Maximum stacksize for task 208: unlimited
  | Maximum stacksize for task 209: unlimited
  | Maximum stacksize for task 210: unlimited
  | Maximum stacksize for task 211: unlimited
  | Maximum stacksize for task 212: unlimited
  | Maximum stacksize for task 213: unlimited
  | Maximum stacksize for task 214: unlimited
  | Maximum stacksize for task 215: unlimited
  | Maximum stacksize for task 216: unlimited
  | Maximum stacksize for task 217: unlimited
  | Maximum stacksize for task 218: unlimited
  | Maximum stacksize for task 219: unlimited
  | Maximum stacksize for task 220: unlimited
  | Maximum stacksize for task 221: unlimited
  | Maximum stacksize for task 222: unlimited
  | Maximum stacksize for task 223: unlimited
  | Maximum stacksize for task 224: unlimited
  | Maximum stacksize for task 225: unlimited
  | Maximum stacksize for task 226: unlimited
  | Maximum stacksize for task 227: unlimited
  | Maximum stacksize for task 228: unlimited
  | Maximum stacksize for task 229: unlimited
  | Maximum stacksize for task 230: unlimited
  | Maximum stacksize for task 231: unlimited
  | Maximum stacksize for task 232: unlimited
  | Maximum stacksize for task 233: unlimited
  | Maximum stacksize for task 234: unlimited
  | Maximum stacksize for task 235: unlimited
  | Maximum stacksize for task 236: unlimited
  | Maximum stacksize for task 237: unlimited
  | Maximum stacksize for task 238: unlimited
  | Maximum stacksize for task 239: unlimited
  | Maximum stacksize for task 240: unlimited
  | Maximum stacksize for task 241: unlimited
  | Maximum stacksize for task 242: unlimited
  | Maximum stacksize for task 243: unlimited
  | Maximum stacksize for task 244: unlimited
  | Maximum stacksize for task 245: unlimited
  | Maximum stacksize for task 246: unlimited
  | Maximum stacksize for task 247: unlimited
  | Maximum stacksize for task 248: unlimited
  | Maximum stacksize for task 249: unlimited
  | Maximum stacksize for task 250: unlimited
  | Maximum stacksize for task 251: unlimited
  | Maximum stacksize for task 252: unlimited
  | Maximum stacksize for task 253: unlimited
  | Maximum stacksize for task 254: unlimited
  | Maximum stacksize for task 255: unlimited
  | Maximum stacksize for task 256: unlimited
  | Maximum stacksize for task 257: unlimited
  | Maximum stacksize for task 258: unlimited
  | Maximum stacksize for task 259: unlimited
  | Maximum stacksize for task 260: unlimited
  | Maximum stacksize for task 261: unlimited
  | Maximum stacksize for task 262: unlimited
  | Maximum stacksize for task 263: unlimited
  | Maximum stacksize for task 264: unlimited
  | Maximum stacksize for task 265: unlimited
  | Maximum stacksize for task 266: unlimited
  | Maximum stacksize for task 267: unlimited
  | Maximum stacksize for task 268: unlimited
  | Maximum stacksize for task 269: unlimited
  | Maximum stacksize for task 270: unlimited
  | Maximum stacksize for task 271: unlimited
  | Maximum stacksize for task 272: unlimited
  | Maximum stacksize for task 273: unlimited
  | Maximum stacksize for task 274: unlimited
  | Maximum stacksize for task 275: unlimited
  | Maximum stacksize for task 276: unlimited
  | Maximum stacksize for task 277: unlimited
  | Maximum stacksize for task 278: unlimited
  | Maximum stacksize for task 279: unlimited
  | Maximum stacksize for task 280: unlimited
  | Maximum stacksize for task 281: unlimited
  | Maximum stacksize for task 282: unlimited
  | Maximum stacksize for task 283: unlimited
  | Maximum stacksize for task 284: unlimited
  | Maximum stacksize for task 285: unlimited
  | Maximum stacksize for task 286: unlimited
  | Maximum stacksize for task 287: unlimited
  | Maximum stacksize for task 288: unlimited
  | Maximum stacksize for task 289: unlimited
  | Maximum stacksize for task 290: unlimited
  | Maximum stacksize for task 291: unlimited
  | Maximum stacksize for task 292: unlimited
  | Maximum stacksize for task 293: unlimited
  | Maximum stacksize for task 294: unlimited
  | Maximum stacksize for task 295: unlimited
  | Maximum stacksize for task 296: unlimited
  | Maximum stacksize for task 297: unlimited
  | Maximum stacksize for task 298: unlimited
  | Maximum stacksize for task 299: unlimited
  | Maximum stacksize for task 300: unlimited
  | Maximum stacksize for task 301: unlimited
  | Maximum stacksize for task 302: unlimited
  | Maximum stacksize for task 303: unlimited
  | Maximum stacksize for task 304: unlimited
  | Maximum stacksize for task 305: unlimited
  | Maximum stacksize for task 306: unlimited
  | Maximum stacksize for task 307: unlimited
  | Maximum stacksize for task 308: unlimited
  | Maximum stacksize for task 309: unlimited
  | Maximum stacksize for task 310: unlimited
[...]

  End of correlation preparation               :  max(cpu_time)    wall_clock(cpu1)
  | Product basis setup: Total time            :       14.307 s          14.331 s
  | Product basis: | 2-center integrations     :        0.319 s           0.319 s
  | Product basis: | LVL 3-center & coefficient:       12.248 s          12.276 s

--------------------------------------------
          GW quasiparticle calculation starts ...

  The ovlp_3KS matrix takes another      0 MiB x   1024 procs =       0.062 GiB.

  Calculating RI-LVL ovlp_3KS
  | Using bunches of    29 states for ovlp_3KS construction.
  | Need       2 MiB per proc for ovlp_3KS construction buffers.
  
  Diagonalizing the Coulomb matrix and checking for singularities with ScaLapack .
 
  Difference of Coulomb matrix to its transposed:  4.9960E-16
  Eigenvalues of the Coulomb matrix range from    2.0000E+00 to    1.0698E-09.
  Using     1310   eigenvalues out of rank     1349   Coulomb matrix (auxiliary basis).
  Still using eigenvalue     1.0093E-05 while cutting     8.2128E-06 in Coulomb matrix.
 
  | Maximum charge error:  4.78E-04

  ovlp_3KS timings:                            :  max(cpu_time)    wall_clock(cpu1)
  | Time for V^0.5                             :       10.418 s          10.433 s
  | Time for fnfnbb -> fnKSbb                  :        0.001 s           0.002 s
  | Time for fnKSbb -> KSKSbb                  :        0.001 s           0.014 s
  | Time for KSKSbb -> KSKSon                  :        0.903 s           0.922 s
  | Time for synchronization                   :        0.556 s           0.557 s

  Initialising Gauss-Legendre time and frequency grids
  Frequency range for self energy...............:  10.000
  Frequency range...............................:  10.000
  Number of freuency points for self energy.....:  20
  Number of frequency points....................:  40
 
  Starts to calculate the exchange energy ...
 
  Integrating the xc potential matrix  for basis functions ...
 
 -------------------------------------------------
  Start to calculate the self energy ... 
  HOMO and first non-fully-occupied orbitals:   20   19   21   18
 
 | i_freq    1            0.034357
 | i_freq    2            0.180140
 | i_freq    3            0.438828
 | i_freq    4            0.804415
 | i_freq    5            1.268340
 | i_freq    6            1.819732
 | i_freq    7            2.445665
 | i_freq    8            3.131470
 | i_freq    9            3.861071
 | i_freq   10            4.617367
 | i_freq   11            5.382633
 | i_freq   12            6.138929
 | i_freq   13            6.868530
 | i_freq   14            7.554335
 | i_freq   15            8.180268
 | i_freq   16            8.731660
 | i_freq   17            9.195585
 | i_freq   18            9.561172
 | i_freq   19            9.819860
 | i_freq   20           10.031337
 | i_freq   21           10.166596
 | i_freq   22           10.416128
 | i_freq   23           10.791192
 | i_freq   24           11.309403
 | i_freq   25           11.996602
 | i_freq   26           12.889764
 | i_freq   27           14.041570
 | i_freq   28           15.527693
 | i_freq   29           17.458682
 | i_freq   30           20.000000
 | i_freq   31           23.407195
 | i_freq   32           28.090729
 | i_freq   33           34.742858
 | i_freq   34           44.604907
 | i_freq   35           60.085105
 | i_freq   36           86.370689
 | i_freq   37          136.391564
 | i_freq   38          250.310805
 | i_freq   39          610.255438
 | i_freq   40         3201.111744
----------------------------------------------------------------------------------------
 
  Analytical continuation (two-pole fitting) starts...
 
  Quasi particle energy calculation using analytic continuation starts...
 
----------------------------------------------------------------------------------------
    GW quasi-particle energy levels
 
               e_qp = e_gs + e_x^ex - e_xc^gs + e_c^nloc
 
  state     occ_num        e_gs        e_x^ex        e_xc^gs        e_c^nloc        e_qp
----------------------------------------------------------------------------------------
                                   Spin Up
----------------------------------------------------------------------------------------
       1    1.0000    -9627.9902     -563.2627     -348.4176        1.0545    -9841.7808
       2    1.0000    -1154.7627     -201.1820     -123.4396       -0.9857    -1233.4908
       3    1.0000    -1000.0251     -192.8132     -129.4145       23.4686    -1039.9551
       4    1.0000    -1000.0251     -192.8132     -129.4145       23.4686    -1039.9551
       5    1.0000     -999.9978     -192.8388     -129.4211      -17.4864    -1080.9020
       6    1.0000     -503.8147     -133.0745      -84.0221        4.9069     -547.9602
       7    1.0000     -123.7443      -82.1517      -51.8369        8.6283     -145.4307
       8    1.0000      -77.9207      -73.0413      -49.3440        9.1963      -92.4216
       9    1.0000      -77.9207      -73.0413      -49.3440        9.1963      -92.4216
      10    1.0000      -77.8256      -73.1594      -49.3699        9.4727      -92.1424
      11    1.0000      -14.3913      -34.0163      -22.1242        8.7258      -17.5577
      12    1.0000       -4.7403      -49.6889      -38.2596        7.7676       -8.4021
      13    1.0000       -4.6777      -51.2294      -39.6007        7.7721       -8.5343
      14    1.0000       -4.6777      -51.2294      -39.6007        7.7721       -8.5343
      15    1.0000       -4.6320      -50.9344      -39.3005        7.7921       -8.4739
      16    1.0000       -4.6320      -50.9344      -39.3005        7.7921       -8.4739
      17    1.0000       -1.6617      -21.5257      -16.2331        2.9786       -3.9757
      18    1.0000        0.5816      -17.1908      -13.3963        1.5249       -1.6880
      19    1.0000        0.7151      -23.9005      -18.1092        3.6437       -1.4326
      20    1.0000        0.7151      -23.9005      -18.1092        3.6437       -1.4326
      21    0.0000        4.0573       -3.7437       -6.5090       -0.7946        6.0281
      22    0.0000        4.0573       -3.7437       -6.5090       -0.7946        6.0281
      23    0.0000        5.3643       -3.4801       -6.2702       -0.8228        7.3315
      24    0.0000        7.8678       -3.1152       -6.5937       -1.1687       10.1776
      25    0.0000        8.9653       -2.2246       -5.6442       -1.0486       11.3362
      26    0.0000        8.9653       -2.2246       -5.6442       -1.0486       11.3362
      27    0.0000        9.5487       -2.7559       -6.2646       -1.1307       11.9266
      28    0.0000        9.5933       -1.8600       -5.2743       -0.9228       12.0849
      29    0.0000        9.5933       -1.8600       -5.2743       -0.9228       12.0849
----------------------------------------------------------------------------------------
                                   Spin Down
----------------------------------------------------------------------------------------
       1    1.0000    -9627.9812     -563.2416     -348.4086        1.0551    -9841.7590
       2    1.0000    -1154.7534     -201.1549     -123.4305       -0.9739    -1233.4517
       3    1.0000    -1000.0223     -192.8119     -129.4120       20.3990    -1043.0231
       4    1.0000    -1000.0223     -192.8119     -129.4120       20.3990    -1043.0231
       5    1.0000     -999.9708     -192.7620     -129.3939      -17.3045    -1080.6434
       6    1.0000     -503.4643     -132.4936      -83.6879        5.9862     -546.2838
       7    1.0000     -123.7203      -82.0668      -51.8140        8.6745     -145.2986
       8    1.0000      -77.9003      -72.9965      -49.3236        9.1881      -92.3851
       9    1.0000      -77.9003      -72.9965      -49.3236        9.1881      -92.3851
      10    1.0000      -77.7872      -73.0187      -49.3437        9.4583      -92.0039
      11    1.0000      -13.5176      -31.4518      -21.0945        7.3474      -16.5275
      12    1.0000       -4.6459      -51.2421      -39.6053        7.7836       -8.4990
      13    1.0000       -4.6459      -51.2421      -39.6053        7.7836       -8.4990
      14    1.0000       -4.5786      -51.0872      -39.3955        7.8463       -8.4240
      15    1.0000       -4.5786      -51.0872      -39.3955        7.8463       -8.4240
      16    1.0000       -4.5523      -49.7869      -38.8518        7.3357       -8.1516
      17    1.0000       -0.8752      -14.7844      -13.0099       -0.7267       -3.3764
      18    1.0000        1.0281      -22.7986      -17.4485        3.2049       -1.1170
      19    1.0000        1.0281      -22.7986      -17.4485        3.2049       -1.1170
      20    0.0000        1.8013       -8.5161      -13.1396       -2.4349        3.9900
      21    0.0000        4.3640       -3.3265       -6.2634       -1.0156        6.2853
      22    0.0000        4.3640       -3.3265       -6.2634       -1.0156        6.2853
      23    0.0000        5.8430       -2.3393       -5.4875       -1.2898        7.7013
      24    0.0000        8.2787       -2.7300       -6.6279       -1.6409       10.5356
      25    0.0000        9.1528       -2.1169       -5.5860       -1.1480       11.4738
      26    0.0000        9.1528       -2.1169       -5.5860       -1.1480       11.4738
      27    0.0000        9.7583       -1.7068       -5.0856       -0.9505       12.1866
      28    0.0000        9.7583       -1.7068       -5.0856       -0.9505       12.1866
      29    0.0000        9.9651       -2.0724       -5.8393       -1.5758       12.1562
----------------------------------------------------------------------------------------

   DFT/Hartree-Fock HOMO level (eV):     0.7151    1.0281
 
   Quasiparticle HOMO level (eV):       -1.4326   -1.1170
----------------------------------------------------------------------------------------
 
          | Total time for transforming the 3-center integrals :       11.911 s
          | Total time for calculating the exchange-correlation
                                  energy matrix elements   :        0.049 s
          | Total time for calculating polarisability     
                        for imaginary frequencies          :       14.583 s
          | Total time for calculating self energy 
                        on imaginary frequency axis        :      142.067 s
          | Total time for calculating the quasiparticle 
                  energies with analytic continuation      :        0.001 s
          | Total time for calculating the quasiparticle 
                  energies with contour deformation        :        0.000 s

------------------------------------------------------------------------------
  Final output of selected total energy values:

  The following output summarizes some interesting total energy values
  at the end of a run (AFTER all relaxation, molecular dynamics, etc.).

  | Total energy of the DFT / Hartree-Fock s.c.f. calculation      :         -51164.354263183 eV
  | Final zero-broadening corrected energy (caution - metals only) :         -51164.354263196 eV
  | For reference only, the value of 1 Hartree used in FHI-aims is :             27.211384500 eV

  Before relying on these values, please be sure to understand exactly which
  total energy value is referred to by a given number. Different objects may
  all carry the same name 'total energy'. Definitions:

  Total energy of the DFT / Hartree-Fock s.c.f. calculation:
  | Note that this energy does not include ANY quantities calculated after the
  | s.c.f. cycle, in particular not ANY RPA, MP2, etc. many-body perturbation terms.

  Final zero-broadening corrected energy:
  | For metallic systems only, a broadening of the occupation numbers at the Fermi
  | level can be extrapolated back to zero broadening by an electron-gas inspired
  | formula. For all systems that are not real metals, this value can be
  | meaningless and should be avoided.

------------------------------------------------------------------------------
  Methods described in the following list of references were used in this FHI-aims run.
  If you publish the results, please make sure to cite these reference if they apply.
  FHI-aims is an academic code, and for our developers (often, Ph.D. students
  and postdocs), scientific credit in the community is essential.
  Thank you for helping us!

  For any use of FHI-aims, please cite:

    Volker Blum, Ralf Gehrke, Felix Hanke, Paula Havu, Ville Havu,
    Xinguo Ren, Karsten Reuter, and Matthias Scheffler
    'Ab initio molecular simulations with numeric atom-centered orbitals'
    Computer Physics Communications 180, 2175-2196 (2009)
    http://dx.doi.org/10.1016/j.cpc.2009.06.022


  For Hartree-Fock, hybrid functionals, or many-body perturbation theory used in your run, please cite:

    Xinguo Ren, Patrick Rinke, Volker Blum, Juergen Wieferink, Alex Tkatchenko,
    Andrea Sanfilippo, Karsten Reuter, and Matthias Scheffler,
    'Resolution-of-identity approach to Hartree-Fock, hybrid density functionals,
    RPA, MP2, and GW with numeric atom-centered orbital basis functions'
    New Journal of Physics 14, 053020 (2012).
    http://dx.doi.org/10.1088/1367-2630/14/5/053020


  The ELSI infrastructure was used in your run to solve the Kohn-Sham electronic structure.
  Please check out http://elsi-interchange.org to learn more.
  If scalability is important for your project, please acknowledge ELSI by citing:

    V. W-z. Yu, F. Corsetti, A. Garcia, W. P. Huhn, M. Jacquelin, W. Jia,
    B. Lange, L. Lin, J. Lu, W. Mi, A. Seifitokaldani, A. Vazquez-Mayagoitia,
    C. Yang, H. Yang, and V. Blum
    'ELSI: A unified software interface for Kohn-Sham electronic structure solvers'
    Computer Physics Communications 222, 267-285 (2018).
    http://dx.doi.org/10.1016/j.cpc.2017.09.007


  For the real-space grid partitioning and parallelization used in this calculation, please cite:

    Ville Havu, Volker Blum, Paula Havu, and Matthias Scheffler,
    'Efficient O(N) integration for all-electron electronic structure calculation'
    'using numerically tabulated basis functions'
    Journal of Computational Physics 228, 8367-8379 (2009).
    http://dx.doi.org/10.1016/j.jcp.2009.08.008


  The high-level electronic structure method used in your calculation
  employed our efficient localized resolution of identity for the Coulomb operator.
  Some calculations, especially large-scale hybrid density functional theory,
  are only possible thanks to this development. For this feature, please cite:

    Arvid Ihrig, Juergen Wieferink, Igor Ying Zhang, Matti Ropo, Xinguo Ren,
    Patrick Rinke, Matthias Scheffler, and Volker Blum,
    'Accurate localized resolution of identity approach for linear-scaling
    hybrid density functionals and for many-body perturbation theory'
    New Journal of Physics 117, 093020 (2015).
    http://dx.doi.org/10.1088/1367-2630/17/9/093020

  Of course, there are many other important community references, e.g., those cited in the
  above references. Our list is limited to references that describe implementations in the
  FHI-aims code. The reason is purely practical (length of this list) - please credit others as well.

 *********************************************************************
   Your are running FHI-aims on many cores. To achieve optimal
   performance for your particular architecture, it might be necessary
   to tune the following compilation and calculation settings:
    * Choosing the right Scalapack and MPI Libraries for your
       architecture is essential. If in doubt, refer to the
       documentation or the sysadmin of your supercomputer.
    * Please review our documentation of Makefile choices, particularly
       for ELPA, in the manual.
    * Some of the following FHI-aims keywords or combination thereof
       may be helpful:
        - FHI-aims setting: collect_eigenvectors .false.
        - FHI-aims setting: use_local_index .true.
        - FHI-aims setting: load_balancing .true.
        - FHI-aims setting: use_alltoall .false.
        - FHI-aims setting: elpa_settings two_step_solver
   Be mindful that the usefulness of these keywords can depend on your
   actual run and on the actual computer you are using. Please check
   their description in the manual and perform specific benchmarks to
   determine what is optimal for your computer. More detailed
   information and examples can be found at:
 http://aimsclub.fhi-berlin.mpg.de/wiki/index.php/Large_scale_settings
 *********************************************************************

------------------------------------------------------------
          Leaving FHI-aims.
          Date     :  20220228, Time     :  143120.946

          Computational steps:
          | Number of self-consistency cycles          :           34
          | Number of SCF (re)initializations          :            1

          Detailed time accounting                     :  max(cpu_time)    wall_clock(cpu1)
          | Total time                                 :      216.235 s         217.895 s
          | Preparation time                           :        0.679 s           0.952 s
          | Boundary condition initalization           :        0.005 s           0.055 s
          | Grid partitioning                          :        0.214 s           0.226 s
          | Preloading free-atom quantities on grid    :        0.352 s           0.417 s
          | Free-atom superposition energy             :        0.019 s           0.023 s
          | Total time for integrations                :        1.644 s           1.731 s
          | Product basis setup: Total time            :        0.000 s           0.000 s
          | Product basis: | 2-center integrations     :(       0.319 s)  (       0.319 s)
          | Product basis: | LVL 3-center & coefficient:(      12.248 s)  (      12.276 s)
          | Transforming ovlp_3fn to ovlp_3KS          :       11.911 s          11.959 s
          | Screened Coulomb matrix W_mn(iw)           :      159.784 s         159.909 s
          | Polarisability matrix Pi_PQ(iw)            :       14.583 s          14.583 s
          | Total time for GW calculation              :      171.813 s         172.016 s
          | GW self-energy (analytic cont.)            :      159.803 s         159.933 s
          | Total time for solution of K.-S. equations :       17.162 s          17.267 s
          | Total time for density update              :        0.988 s           1.049 s
          | Total time for mixing                      :        0.668 s           0.728 s
          | Total time for Hartree multipole update    :        2.201 s           2.264 s
          | Total time for Hartree multipole sum       :        1.837 s           1.921 s
          | Total time for total energy evaluation     :        0.264 s           0.368 s
          | Total time for scaled ZORA corrections     :        0.000 s           0.000 s

          Partial memory accounting:
          | Residual value for overall tracked memory usage across tasks:     0.000000 MB (should be 0.000000 MB)
          | Peak values for overall tracked memory usage:
          |   Minimum:        0.238 MB (on task  563 after allocating KS_eigenvector_complex)
          |   Maximum:        0.810 MB (on task  452 after allocating wave)
          |   Average:        0.540 MB
          | Largest tracked array allocation:
          |   Minimum:        0.135 MB (gradient_basis_wave on task    0)
          |   Maximum:        0.301 MB (gradient_basis_wave on task  452)
          |   Average:        0.212 MB
          Note:  These values currently only include a subset of arrays which are explicitly tracked.
          The "true" memory usage will be greater.

          Have a nice day.
------------------------------------------------------------
