------------------------------------------------------------
          Invoking FHI-aims ...

          When using FHI-aims, please cite the following reference:

            Volker Blum, Ralf Gehrke, Felix Hanke, Paula Havu,
            Ville Havu, Xinguo Ren, Karsten Reuter, and Matthias Scheffler,
            'Ab Initio Molecular Simulations with Numeric Atom-Centered Orbitals',
            Computer Physics Communications 180, 2175-2196 (2009)

          In addition, many other developments in FHI-aims are likely important for
          your particular application. If so, please cite them. A partial list of references
          is written at the end of this file. Thank you for giving credit to the authors
          of these developments.

          For general information about FHI-aims please find us at

            https://fhi-aims.org

          Online tutorials can be found at

            https://fhi-aims-club.gitlab.io/tutorials/tutorials-overview/

          For any questions about FHI-aims, please visit our slack channel at

            https://fhi-aims.slack.com

          and our main development and support site at

            https://aims-git.rz-berlin.mpg.de .

          The latter site, in particular, has a wiki to collect information, as well
          as an issue tracker to log discussions, suggest improvements, and report issues
          or bugs. https://aims-git.rz-berlin.mpg.de is also the main development site
          of the project and all new and updated code versions can be obtained there.
          Please send an email to aims-coordinators@fhi-berlin.mpg.de and we will add
          you to these sites. They are for you and everyone is welcome there.

------------------------------------------------------------



  Date     :  20230627, Time     :  233332.800
  Time zero on CPU 1             :   0.287884300000000E+01  s.
  Internal wall clock time zero  :           457140812.800  s.

  FHI-aims created a unique identifier for this run for later identification
  aims_uuid : 6CD313B6-2AAA-444F-ADFA-5891E8184568

  Build configuration of the current instance of FHI-aims
  -------------------------------------------------------
  FHI-aims version      : 230612
  Commit number         : 3c46330a0
  CMake host system     : Linux-3.10.0-1160.15.2.el7.x86_64
  CMake version         : 3.14.4
  Fortran compiler      : /Space/globalspace/intel-2023.0/mpi/2021.8.0/bin/mpiifort (Intel) version 20.2.8.20221119
  Fortran compiler flags: -O3 -ip -fp-model precise -mavx
  C compiler            : /Space/globalspace/intel-2023.0/compiler/2023.0.0/linux/bin/intel64/icc (Intel) version 20.2.8.20221119
  C compiler flags      : -O3 -ip -fp-model precise -std=gnu99 -mavx
  HIP compiler          :
  HIP compiler flags    :
  HIP GPU arch          :
  ELPA2 kernel          : AVX
  Using MPI
  Using ScaLAPACK
  Using LibXC
  Using i-PI
  Using RLSY
  Linking against: /Space/globalspace/intel-2023.0/mkl/2023.0.0/lib/intel64/libmkl_intel_lp64.so
                   /Space/globalspace/intel-2023.0/mkl/2023.0.0/lib/intel64/libmkl_sequential.so
                   /Space/globalspace/intel-2023.0/mkl/2023.0.0/lib/intel64/libmkl_core.so
                   /Space/globalspace/intel-2023.0/mkl/2023.0.0/lib/intel64/libmkl_blacs_intelmpi_lp64.so
                   /Space/globalspace/intel-2023.0/mkl/2023.0.0/lib/intel64/libmkl_scalapack_lp64.so
                   /Space/globalspace/intel-2023.0/mkl/2023.0.0/lib/intel64/libmkl_core.so

  Using        4 parallel tasks.
  Task        0 on host node15.timewarp reporting.
  Task        1 on host node15.timewarp reporting.
  Task        2 on host node15.timewarp reporting.
  Task        3 on host node15.timewarp reporting.

  Obtaining array dimensions for all initial allocations:
  
  -----------------------------------------------------------------------
  Parsing control.in (first pass over file, find array dimensions only).
  The contents of control.in will be repeated verbatim below
  unless switched off by setting 'verbatim_writeout .false.' .
  in the first line of control.in .
  -----------------------------------------------------------------------
  
  xc                pbe
  relativistic      atomic_zora scalar
  qpe_calc          gw_expt
  frequency_points  20
  anacon_type       0
  k_grid            3 3 3
  output                     band   0.00000  0.00000  0.00000   0.50000  0.00000  0.50000   5 G  X
  periodic_gw_optimize inverse
  ################################################################################
  #
  #  FHI-aims code project
  #  VB, Fritz-Haber Institut, 2009
  #
  #  Suggested "light" defaults for Si atom (to be pasted into control.in file)
  #  Be sure to double-check any results obtained with these settings for post-processing,
  #  e.g., with the "tight" defaults and larger basis sets.
  #
  #  2020/09/08 Added f function to "light" after reinspection of Delta test outcomes.
  #             This was done for all of Al-Cl and is a tricky decision since it makes
  #             "light" calculations measurably more expensive for these elements.
  #             Nevertheless, outcomes for P, S, Cl (and to some extent, Si) appear
  #             to justify this choice.
  #
  ################################################################################
    species        Si
  #     global species definitions
      nucleus             14
      mass                28.0855
  #
      l_hartree           4
  #
      cut_pot             3.5          1.5  1.0
      basis_dep_cutoff    1e-4
  #
      radial_base         42 5.0
      radial_multiplier   1
      angular_grids       specified
        division   0.5866   50
        division   0.9616  110
        division   1.2249  194
        division   1.3795  302
  #      division   1.4810  434
  #      division   1.5529  590
  #      division   1.6284  770
  #      division   1.7077  974
  #      division   2.4068 1202
  #      outer_grid   974
        outer_grid 302
  ################################################################################
  #
  #  Definition of "minimal" basis
  #
  ################################################################################
  #     valence basis states
      valence      3  s   2.
      valence      3  p   2.
  #     ion occupancy
      ion_occ      3  s   1.
      ion_occ      3  p   1.
  ################################################################################
  #
  #  Suggested additional basis functions. For production calculations,
  #  uncomment them one after another (the most important basis functions are
  #  listed first).
  #
  #  Constructed for dimers: 1.75 A, 2.0 A, 2.25 A, 2.75 A, 3.75 A
  #
  ################################################################################
  #  "First tier" - improvements: -571.96 meV to -37.03 meV
       hydro 3 d 4.2
  #     hydro 2 p 1.4
  #     hydro 4 f 6.2
  #     ionic 3 s auto
  #  "Second tier" - improvements: -16.76 meV to -3.03 meV
  #     hydro 3 d 9
  #     hydro 5 g 9.4
  #     hydro 4 p 4
  #     hydro 1 s 0.65
  #  "Third tier" - improvements: -3.89 meV to -0.60 meV
  #     ionic 3 d auto
  #     hydro 3 s 2.6
  #     hydro 4 f 8.4
  #     hydro 3 d 3.4
  #     hydro 3 p 7.8
  #  "Fourth tier" - improvements: -0.33 meV to -0.11 meV
  #     hydro 2 p 1.6
  #     hydro 5 g 10.8
  #     hydro 5 f 11.2
  #     hydro 3 d 1
  #     hydro 4 s 4.5
  #  Further basis functions that fell out of the optimization - noise
  #  level... < -0.08 meV
  #     hydro 4 d 6.6
  #     hydro 5 g 16.4
  #     hydro 4 d 9
  
  -----------------------------------------------------------------------
  Completed first pass over input file control.in .
  -----------------------------------------------------------------------
  
  
  -----------------------------------------------------------------------
  Parsing geometry.in (first pass over file, find array dimensions only).
  The contents of geometry.in will be repeated verbatim below
  unless switched off by setting 'verbatim_writeout .false.' .
  in the first line of geometry.in .
  -----------------------------------------------------------------------
  
  lattice_vector     -0.00000000      2.73820297      2.73820297
  lattice_vector      2.73820297     -0.00000000      2.73820297
  lattice_vector      2.73820297      2.73820297      0.00000000
  atom_frac      -0.00000000      0.00000000      0.00000000 Si
  atom_frac       0.25000000      0.25000000      0.25000000 Si
  
  -----------------------------------------------------------------------
  Completed first pass over input file geometry.in .
  -----------------------------------------------------------------------
  

  Basic array size parameters:
  | Number of species                 :        1
  | Number of atoms                   :        2
  | Number of lattice vectors         :        3
  | Max. basis fn. angular momentum   :        2
  | Max. atomic/ionic basis occupied n:        3
  | Max. number of basis fn. types    :        2
  | Max. radial fns per species/type  :        5
  | Max. logarithmic grid size        :     1346
  | Max. radial integration grid size :       42
  | Max. angular integration grid size:      302
  | Max. angular grid division number :        8
  | Radial grid for Hartree potential :     1346
  | Number of spin channels           :        1

------------------------------------------------------------
          Reading file control.in.
------------------------------------------------------------
  XC: Using PBE gradient-corrected functionals.
  Scalar relativistic treatment of kinetic energy: on-site free-atom approximation to ZORA.
  Periodic GW calculations will be started if finite k point sampling is also set. Please be warned that periodic GW is only at the experimental stage and is still under testing. Be cautious about your results.
  Number of frequency points used for the self-energy calculation:     20
  Using two-pole fitting for analytical continuation.
  Found k-point grid:         3         3         3

  Plot band    1
  | begin  0.000000  0.000000  0.000000
  | end    0.500000  0.000000  0.500000
  | number of points:    5
 Periodic GW: Use Cholesky decomp for dielectric matrix inversion.
 
  Reading configuration options for species Si                  .
  | Found nuclear charge :  14.0000
  | Found atomic mass :    28.0855000000000      amu
  | Found l_max for Hartree potential  :   4
  | Found cutoff potl. onset [A], width [A], scale factor :    3.50000    1.50000    1.00000
  | Threshold for basis-dependent cutoff potential is   0.100000E-03
  | Found data for basic radial integration grid :    42 points, outermost radius =    5.000 A
  | Found multiplier for basic radial grid :   1
  | Found angular grid specification: user-specified.
  | Specified grid contains     5 separate shells.
  | Check grid settings after all constraints further below.
  | Found free-atom valence shell :  3 s   2.000
  | Found free-atom valence shell :  3 p   2.000
  | No ionic wave fns used. Skipping ion_occ.
  | No ionic wave fns used. Skipping ion_occ.
  | Found hydrogenic basis function :  3 d   4.200
  Species Si                  : Missing cutoff potential type.
  Defaulting to exp(1/x)/(1-x)^2 type cutoff potential.
  Species Si: No 'logarithmic' tag. Using default grid for free atom:
  | Default logarithmic grid data [bohr] : 0.1000E-03 0.1000E+03 0.1012E+01
  Species Si: On-site basis accuracy parameter (for Gram-Schmidt orthonormalisation) not specified.
  Using default value basis_acc =  0.1000000E-03.
  Species Si                  : Using default innermost maximum threshold i_radial=  2 for radial functions.
  Species Si                  : Default cutoff onset for free atom density etc. : 0.35000000E+01 AA.
  Species Si                  : Basic radial grid will be enhanced according to radial_multiplier =   1, to contain    42 grid points.
 
  Finished reading input file 'control.in'.
 
------------------------------------------------------------


------------------------------------------------------------
          Reading geometry description geometry.in.
------------------------------------------------------------
  | The smallest distance between any two atoms is         2.37135333 AA.
  | The first atom of this pair is atom number                      1 .
  | The second atom of this pair is atom number                     2 .
  | Wigner-Seitz cell of the first atom image           0     0     1 .
  | (The Wigner-Seitz cell of the second atom is 0 0 0  by definition.)

  Symmetry information by spglib:
  | Precision set to  0.1E-04
  | Number of Operations  : 48
  | Space group           : 227
  | International         : Fd-3m    O
  | Schoenflies           : Oh^7
  Input structure read successfully.
  The structure contains        2 atoms,  and a total of         28.000 electrons.

  Input geometry:
  | Unit cell:
  |        0.00000000        2.73820297        2.73820297
  |        2.73820297        0.00000000        2.73820297
  |        2.73820297        2.73820297        0.00000000
  | Atomic structure:
  |       Atom                x [A]            y [A]            z [A]
  |    1: Species Si            0.00000000        0.00000000        0.00000000
  |    2: Species Si            1.36910149        1.36910149        1.36910149

  Lattice parameters for 3D lattice (in Angstroms) :     3.872404    3.872404    3.872404
  Angle(s) between unit vectors (in degrees)       :    60.000000   60.000000   60.000000


  Quantities derived from the lattice vectors (in Angstrom^-1):
  | Reciprocal lattice vector 1: -1.147319  1.147319  1.147319
  | Reciprocal lattice vector 2:  1.147319 -1.147319  1.147319
  | Reciprocal lattice vector 3:  1.147319  1.147319 -1.147319
  | Unit cell volume                               :   0.410608E+02  Angstrom^3

  Fractional coordinates:
                         L1                L2                L3
       atom_frac         0.00000000        0.00000000        0.00000000  Si
       atom_frac         0.25000000        0.25000000        0.25000000  Si

 
  Finished reading input file 'geometry.in'.
 

 
  Consistency checks for stacksize environment parameter are next.
 
  | Maximum stacksize for task 0: unlimited
  | Maximum stacksize for task 1: unlimited
  | Maximum stacksize for task 2: unlimited
  | Maximum stacksize for task 3: unlimited
  | Current stacksize for task 0: unlimited
  | Current stacksize for task 1: unlimited
  | Current stacksize for task 2: unlimited
  | Current stacksize for task 3: unlimited
 
  Consistency checks for the contents of control.in are next.
 
  MPI_IN_PLACE appears to work with this MPI implementation.
  | Keeping use_mpi_in_place .true. (see manual).
  Explicit treatment of the Coulomb operator is needed, but the RI method is not specified.
  Coulomb operator: Defaulting to 'LVL fast' resolution of identity - RI_type = LVL_fast
  Species Si: Using default value for prodbas_acc =   1.000000E-04.
  Species Si: Using default value max_l_prodbas =    20.
  Target number of points in a grid batch is not set. Defaulting to  100
  Method for grid partitioning is not set. Defaulting to parallel hash+maxmin partitioning.
  Batch size limit is not set. Defaulting to    200
  By default, will store active basis functions for each batch.
  If in need of memory, prune_basis_once .false. can be used to disable this option.
  communication_type for Hartree potential was not specified.
  Defaulting to calc_hartree .
  Defaulting to Pulay charge density mixer.
  Pulay mixer: Number of relevant iterations not set.
  Defaulting to    8 iterations.
  Pulay mixer: Number of initial linear mixing iterations not set.
  Defaulting to    0 iterations.
  Work space size for distributed Hartree potential not set.
  Defaulting to   0.200000E+03 MB.
  Mixing parameter for charge density mixing has not been set.
  Using default: charge_mix_param =     0.0500.
  The mixing parameter will be adjusted in iteration number     2 of the first full s.c.f. cycle only.
  Algorithm-dependent basis array size parameters:
  | n_max_pulay                         :        8
  Maximum number of self-consistency iterations not provided.
  Presetting  1000 iterations.
  Presetting      1001 iterations before the initial mixing cycle
  is restarted anyway using the sc_init_iter criterion / keyword.
  Presetting a factor      1.000 between actual scf density residual
  and density convergence criterion sc_accuracy_rho below which sc_init_iter
  takes no effect.
 * No s.c.f. convergence criteria (sc_accuracy_*) were provided in control.in.
 * The run will proceed with a reasonable default guess, but please check whether.
 * the s.c.f. cycles seem to take too much or too little time.
  Calculation of forces was not defined in control.in. No forces will be calculated.
  Geometry relaxation not requested: no relaxation will be performed.
 * Notice: The s.c.f. convergence criterion sc_accuracy_rho was not provided.
 * We used to stop in this case, and ask the user to provide reasonable
 * scf convergence criteria. However, this led some users to employ criteria
 * that led to extremely long run times, e.g., for simple relaxation.
 * We now preset a default value for sc_accuracy_rho if it is not set.
 * You may still wish to check if this setting is too tight or too loose for your needs.
 * Based on n_atoms and forces and force-correction status, FHI-aims chose sc_accuracy_rho =  0.100000E-05 .
  No accuracy limit for integral partition fn. given. Defaulting to  0.1000E-14.
  No threshold value for u(r) in integrations given. Defaulting to  0.1000E-05.
  No occupation type (smearing scheme) given. Defaulting to Gaussian broadening, width =  0.1000E-01 eV.
  The width will be adjusted in iteration number     2 of the first full s.c.f. cycle only.
  S.C.F. convergence parameters will be adjusted in iteration number     2 of the first full s.c.f. cycle only.
  No accuracy for occupation numbers given. Defaulting to  0.1000E-12.
  No threshold value for occupation numbers given. Defaulting to  0.0000E+00.
  No accuracy for fermi level given. Defaulting to  0.1000E-19.
  Maximum # of iterations to find E_F not set. Defaulting to  200.
  Preferred method for the eigenvalue solver ('KS_method') not specified in 'control.in'.
  Defaulting to serial version, LAPACK (via ELSI), since more k-points than CPUs available.
  Will not use alltoall communication since running on < 1024 CPUs.
  Threshold for basis singularities not set.
  Default threshold for basis singularities:  0.1000E-04
  partition_type (choice of integration weights) for integrals was not specified.
  | Using a version of the partition function of Stratmann and coworkers ('stratmann_sparse').
  | At each grid point, the set of atoms used to build the partition table is smoothly restricted to
  | only those atoms whose free-atom density would be non-zero at that grid point.
  Partitioning for Hartree potential was not defined. Using partition_type for integrals.
  | Adjusted default value of keyword multip_moments_threshold to:       0.10000000E-11
  | This value may affect high angular momentum components of the Hartree potential in periodic systems.
  Spin handling was not defined in control.in. Defaulting to unpolarized case.
  Angular momentum expansion for Kerker preconditioner not set explicitly.
  | Using default value of   0
  No explicit requirement for turning off preconditioner.
  | By default, it will be turned off when the charge convergence reaches
  | sc_accuracy_rho  =   0.100000E-05
  No special mixing parameter while Kerker preconditioner is on.
  Using default: charge_mix_param =     0.0500.
  Threshold for auxiliary basis singularities not set.
  Default threshold for auxiliary basis singularities:  0.1000E-04
  * Periodic GW calculations will start ......
  No q(lm)/r^(l+1) cutoff set for long-range Hartree potential.
  | Using default value of  0.100000E-09 .
  | Verify using the multipole_threshold keyword.
  Defaulting to new monopole extrapolation.
  Density update method: automatic selection selected.
  Using density matrix based charge density update.
  Using density matrix based charge density update.
  Using packed matrix style: index .
 * WARNING: This is an experimental version of the periodic GW implemenation.
 * We are still actively working on it to improve the efficiency and reliability. 
 * Do not rely on any results you obtained from periodic GW calculation.
  Defaulting to use full k-point grid (no symmetry reduction).
  Charge integration errors on the 3D integration grid will be compensated
  by explicit normalization and distribution of residual charges.
  Use the "compensate_multipole_errors" flag to change this behaviour.
  Default to 1D ("use_logsbt") integrations for auxiliary 2-center integrals.
  Default onset of logarithmic r-grid for SBT is -38.000000000000
  Default onset of logarithmic k-grid for SBT is -25.000000000000
  Default range of logarithmic r- and k-grid for SBT is  45.000000000000
  Default number of logarithmic r- and k-grid for SBT is   4096
  Set 'collect_eigenvectors' to be '.true.' for all serial calculations. This is mandatory.
  Set 'collect_eigenvectors' to be '.true.' for GW/RPA/MP2, SCREX/COHSEX cluster calculations
  Set 'collect_eigenvectors' to be '.true.' for qpe_calc (quasiparticle energy).
  Set 'collect_eigenvectors' to be '.true.' for KS_method lapack_fast and serial.
 
  Consistency checks for the contents of geometry.in are next.
 

  Range separation radius for Ewald summation (hartree_convergence_parameter):      3.92478710 bohr.
  Number of empty states per atom not set in control.in .
  | Since you are using a method that relies on the unoccupied spectrum
  | (MP2,GW,RPA et al.), will use the full Hamiltonian size (see below)
  | as the max. possible number of states (occupied plus empty).

  Structure-dependent array size parameters: 
  | Maximum number of distinct radial functions  :        6
  | Maximum number of basis functions            :       28
  | Number of Kohn-Sham states (occupied + empty):       28
------------------------------------------------------------
  Setting Coulomb cut-width to  1.091868692359 * rcut.
  Setting Coulomb cutting radius rcut to  5.808605665056 A.
  After read_input_data [GB]:     62.48

  Performing system and environment tests:
  | Environment variable OMP_NUM_THREADS correctly set to 1.
  | Checking for ScaLAPACK...
  | Testing pdtran()...
  | All pdtran() tests passed.
  After prepare_system [GB]:     62.45

------------------------------------------------------------
          Preparing all fixed parts of the calculation.
------------------------------------------------------------
  Determining machine precision:
    2.225073858507201E-308
  Setting up grids for atomic and cluster calculations.

  Creating wave function, potential, and density for free atoms.
  Runtime choices for atomic solver:
  | atomic solver xc        : PBE
  | compute density gradient: 1
  | compute kinetic density : F

  Species: Si

  List of occupied orbitals and eigenvalues:
    n    l              occ      energy [Ha]    energy [eV]
    1    0           2.0000       -65.767597     -1789.6274
    2    0           2.0000        -5.115610      -139.2028
    3    0           2.0000        -0.388877       -10.5819
    2    1           6.0000        -3.500197       -95.2452
    3    1           2.0000        -0.140803        -3.8315


  Adding cutoff potential to free-atom effective potential.
  Creating fixed part of basis set: Ionic, confined, hydrogenic.
 
  Si                   hydrogenic:
 
  List of hydrogenic basis orbitals: 
    n    l      effective z      eigenvalue [eV]  inner max. [A]     outer max. [A]     outer radius [A]   
    3    2         4.200000       -26.6624           1.139231           1.139231           4.534782
 
  Creating atomic-like basis functions for current effective potential.

  Species Si                  :

  List of atomic basis orbitals and eigenvalues:
    n    l      energy [Ha]    energy [eV]    outer radius [A]
    1    0       -65.767597     -1789.6274       0.789468
    2    0        -5.115610      -139.2028       2.815114
    3    0        -0.388877       -10.5819       4.534782
    2    1        -3.500197       -95.2452       3.259919
    3    1        -0.140803        -3.8315       4.590560

  Assembling full basis from fixed parts.
  | Species Si :   atomic orbital   1 s accepted.
  | Species Si :   atomic orbital   2 s accepted.
  | Species Si :   atomic orbital   3 s accepted.
  | Species Si :   atomic orbital   2 p accepted.
  | Species Si :   atomic orbital   3 p accepted.
  | Species Si :    hydro orbital   3 d accepted.
 
  Basis size parameters after reduction:
  | Total number of radial functions:        6
  | Total number of basis functions :       28
 
  Per-task memory consumption for arrays in subroutine allocate_ext:
  |           2.068436MB.
  Testing on-site integration grid accuracy.
  |  Species  Function  <phi|h_atom|phi> (log., in eV)  <phi|h_atom|phi> (rad., in eV)
           1        1              -1789.6273740966              -1789.6266345813
           1        2               -139.2028173376               -139.2028132357
           1        3                -10.5827646566                -10.5840329934
           1        4                -95.2452114632                -95.2452114537
           1        5                 -3.8413965043                 -3.8571292824
           1        6                  6.3860095444                  6.3839142324

  Preparing densities etc. for the partition functions (integrals / Hartree potential).

  Preparations completed.
  max(cpu_time)          :      0.095 s.
  Wall clock time (cpu1) :      0.096 s.
------------------------------------------------------------
  After prepare_scf [GB]:     62.43

  Initializing index lists of integration centers etc. from given atomic structure:
  Mapping all atomic coordinates to central unit cell.

  Initializing the k-points
  | Number of k-points                             :        27
  | Consuming         11 KiB for k_phase_exx.
  The eigenvectors in the calculations are COMPLEX.
  | K-points in task   0:         6
  | K-points in task   1:         7
  | K-points in task   2:         7
  | K-points in task   3:         7
  | Number of basis functions in the Hamiltonian integrals :      1094
  | Number of basis functions in a single unit cell        :        28
  | Number of centers in hartree potential         :       708
  | Number of centers in hartree multipole         :       318
  | Number of centers in electron density summation:       190
  | Number of centers in basis integrals           :       198
  | Number of centers in integrals                 :       101
  | Number of centers in hamiltonian               :       190
  | Consuming         47 KiB for k_phase.
  | Number of super-cells (origin) [n_cells]                     :        2197
  | Number of super-cells (after PM_index) [n_cells]             :         112
  | Number of super-cells in hamiltonian [n_cells_in_hamiltonian]:         112
  | Size of matrix packed + index [n_hamiltonian_matrix_size] :       23899
  After initialize_bc_dependent_lists [GB]:     62.43

------------------------------------------------------------
          Begin self-consistency loop: Initialization.

          Date     :  20230627, Time     :  233332.971
------------------------------------------------------------
  Available memory per node after initialize_hartree_non_periodic_ewald [GB]:     62.43
  | Estimated reciprocal-space cutoff momentum G_max:         2.37748724 bohr^-1 .
  | Reciprocal lattice points for long-range Hartree potential:      58
  Available memory per node after initialize_recip_hartree_potential [GB]:     62.43
  Available memory per node after initialize_scalapack [GB]:     62.43
  Available memory per node after aims_elsi_init_scf [GB]:     62.43
  Available memory per node after initialize_fixed_grids [GB]:     62.43
  Partitioning the integration grid into batches with parallel hashing+maxmin method.
  | Number of batches:      142
  | Maximal batch size:     107
  | Minimal batch size:      50
  | Average batch size:      78.930
  | Standard deviation of batch sizes:      15.390

  Integration load balanced across     4 MPI tasks.
  Work distribution over tasks is as follows:
  Task     0 has       2835 integration points.
  Task     1 has       2810 integration points.
  Task     2 has       2753 integration points.
  Task     3 has       2810 integration points.
  Available memory per node after partition_grid [GB]:     62.43
  Initializing partition tables, free-atom densities, potentials, etc. across the integration grid (initialize_grid_storage).
  | initialize_grid_storage: Actual outermost partition radius vs. multipole_radius_free
  | (-- VB: in principle, multipole_radius_free should be larger, hence this output)
  | Species        1: Confinement radius =              4.999999999999999 AA, multipole_radius_free =              5.000694715736543 AA.
  | Species        1: outer_partition_radius set to              5.000694715736543 AA .
  | The sparse table of interatomic distances needs        212.76 kbyte instead of       313.63 kbyte of memory.
  | Net number of integration points:    11208
  | of which are non-zero points    :     9820
  | Numerical average free-atom electrostatic potential    :    -12.80270539 eV
  Available memory per node after initialize_grid_storage_p1 [GB]:     62.42
  Renormalizing the initial density to the exact electron count on the 3D integration grid.
  | Initial density: Formal number of electrons (from input files) :      28.0000000000
  | Integrated number of electrons on 3D grid     :      28.0047045241
  | Charge integration error                      :       0.0047045241
  | Normalization factor for density and gradient :       0.9998320095
  Renormalizing the free-atom superposition density to the exact electron count on the 3D integration grid.
  | Formal number of electrons (from input files) :      28.0000000000
  | Integrated number of electrons on 3D grid     :      28.0047045241
  | Charge integration error                      :       0.0047045241
  | Normalization factor for density and gradient :       0.9998320095
  Obtaining max. number of non-zero basis functions in each batch (get_n_compute_maxes).
  | Maximal number of non-zero basis functions:      342 in task     0
  | Maximal number of non-zero basis functions:      343 in task     1
  | Maximal number of non-zero basis functions:      343 in task     2
  | Maximal number of non-zero basis functions:      339 in task     3
  Available memory per node after get_n_compute_maxes_p1 [GB]:     62.42
  Allocating        0.072 MB for KS_eigenvector_complex
  Available memory per node after allocate_matrices [GB]:     62.42
  Available memory per node after init_comm_sparse_local_matrix_scalapack [GB]:     62.42
  Integrating Hamiltonian matrix: batch-based integration.
  Time summed over all CPUs for integration: real work        0.295 s, elapsed        0.311 s
  Available memory per node after integrate hamiltonian matrix [GB]:     62.41
  Integrating overlap matrix.
  Time summed over all CPUs for integration: real work        0.176 s, elapsed        0.181 s
  Available memory per node after integrate ovlp matrix [GB]:     62.41
  Available memory per node after ASI_callbacks invoke [GB]:     62.41
  Decreasing sparse matrix size:
  | Tolerance:  0.1000E-12
  Hamiltonian matrix
  | Array has    20387 nonzero elements out of    23899 elements
  | Sparsity factor is 0.147
  Overlap matrix
  | Array has    18936 nonzero elements out of    23899 elements
  | Sparsity factor is 0.208
  New size of hamiltonian matrix:       20543
  Available memory per node after save_overlap_scalapack [GB]:     62.41

  Updating Kohn-Sham eigenvalues and eigenvectors using ELSI and the (modified) LAPACK eigensolver.
  Singularity check in k-point 4, task 0 (analysis for other k-points/tasks may follow below):
  Overlap matrix is not singular
  | Lowest and highest eigenvalues :  0.1115E+00,  0.3331E+01
  Finished singularity check of overlap matrix
  | Time :     0.000 s
  Starting LAPACK eigensolver
  Finished Cholesky decomposition
  | Time :     0.000 s
  Finished transformation to standard eigenproblem
  | Time :     0.000 s
  Finished solving standard eigenproblem
  | Time :     0.000 s
  Finished back-transformation of eigenvectors
  | Time :     0.000 s

  Obtaining occupation numbers and electronic chemical potential using ELSI.
  | Note that, for insulating systems, the printed 'chemical potential' value is not uniquely defined.
  | It can be anywhere in the energy gap, as long as it correctly separates occupied and unoccupied states.
  | In systems with a gap, the physically relevant chemical potential is the VBM or HOMO.

  | Chemical potential (Fermi level):    -5.10124488 eV
  Available memory per node after advance_KS_solution [GB]:     62.41
  Writing Kohn-Sham eigenvalues.
  K-point:       1 at    0.000000    0.000000    0.000000 (in units of recip. lattice)

  State    Occupation    Eigenvalue [Ha]    Eigenvalue [eV]
      1       2.00000         -65.787664        -1790.17341
      2       2.00000         -65.787664        -1790.17341
      3       2.00000          -5.140031         -139.86736
      4       2.00000          -5.139781         -139.86055
      5       2.00000          -3.524628          -95.91002
      6       2.00000          -3.524628          -95.91002
      7       2.00000          -3.524628          -95.91002
      8       2.00000          -3.524066          -95.89471
      9       2.00000          -3.524066          -95.89471
     10       2.00000          -3.524066          -95.89471
     11       2.00000          -0.649985          -17.68699
     12       2.00000          -0.222443           -6.05299
     13       2.00000          -0.222443           -6.05299
     14       2.00000          -0.222443           -6.05299
     15       0.00000          -0.121432           -3.30432
     16       0.00000          -0.121432           -3.30432
     17       0.00000          -0.121432           -3.30432
     18       0.00000          -0.106775           -2.90550
     19       0.00000           0.073559            2.00163
     20       0.00000           0.073559            2.00163
     21       0.00000           0.327389            8.90872
     22       0.00000           0.327389            8.90872
     23       0.00000           0.327389            8.90872
     24       0.00000           0.682574           18.57379
     25       0.00000           0.682574           18.57379
     26       0.00000           0.765620           20.83357
     27       0.00000           0.765620           20.83357
     28       0.00000           0.765620           20.83357

  What follows are estimated values for band gap, HOMO, LUMO, etc.
  | They are estimated on a discrete k-point grid and not necessarily exact.
  | For converged numbers, create a DOS and/or band structure plot on a denser k-grid.

  Highest occupied state (VBM) at     -6.05298762 eV (relative to internal zero)
  | Occupation number:      2.00000000
  | K-point:       1 at    0.000000    0.000000    0.000000 (in units of recip. lattice)

  Lowest unoccupied state (CBM) at    -5.05047845 eV (relative to internal zero)
  | Occupation number:      0.00000000
  | K-point:       9 at    0.000000    0.666667    0.666667 (in units of recip. lattice)

  ESTIMATED overall HOMO-LUMO gap:      1.00250916 eV between HOMO at k-point 1 and LUMO at k-point 9
  | This appears to be an indirect band gap.
  | Smallest direct gap :      2.74156001 eV for k_point 4 at    0.000000    0.333333    0.000000 (in units of recip. lattice)
  The gap value is above 0.2 eV. Unless you are using a very sparse k-point grid,
  this system is most likely an insulator or a semiconductor.
  Calculating total energy contributions from superposition of free atom densities.

  Total energy components:
  | Sum of eigenvalues            :        -329.19019466 Ha       -8957.72096042 eV
  | XC energy correction          :         -41.71068376 Ha       -1135.00545342 eV
  | XC potential correction       :          53.86675186 Ha        1465.78889667 eV
  | Free-atom electrostatic energy:        -263.65609373 Ha       -7174.44734228 eV
  | Hartree energy correction     :           0.00000000 Ha           0.00000000 eV
  | Entropy correction            :          -0.00000000 Ha          -0.00000000 eV
  | ---------------------------
  | Total energy                  :        -580.69022028 Ha      -15801.38485945 eV
  | Total energy, T -> 0          :        -580.69022028 Ha      -15801.38485945 eV  <-- do not rely on this value for anything but (periodic) metals
  | Electronic free energy        :        -580.69022028 Ha      -15801.38485945 eV

  Derived energy quantities:
  | Kinetic energy                :         582.32654813 Ha       15845.91160572 eV
  | Electrostatic energy          :       -1121.30608466 Ha      -30512.29101175 eV
  | Energy correction for multipole
  | error in Hartree potential    :           0.00000000 Ha           0.00000000 eV
  | Sum of eigenvalues per atom                           :       -4478.86048021 eV
  | Total energy (T->0) per atom                          :       -7900.69242973 eV  <-- do not rely on this value for anything but (periodic) metals
  | Electronic free energy per atom                       :       -7900.69242973 eV
  Initialize hartree_potential_storage
  Max. number of atoms included in rho_multipole:            2

  End scf initialization - timings             :  max(cpu_time)    wall_clock(cpu1)
  | Time for scf. initialization                :        0.234 s           0.234 s
  | Boundary condition initialization           :        0.029 s           0.028 s
  | Integration                                 :        0.124 s           0.124 s
  | Solution of K.-S. eqns.                     :        0.005 s           0.005 s
  | Grid partitioning                           :        0.017 s           0.017 s
  | Preloading free-atom quantities on grid     :        0.075 s           0.075 s
  | Free-atom superposition energy              :        0.011 s           0.011 s
  | Total energy evaluation                     :        0.000 s           0.000 s

  Partial memory accounting:
  | Current value for overall tracked memory usage:
  |   Minimum:        0.497 MB (on task 0)
  |   Maximum:        0.509 MB (on task 1)
  |   Average:        0.506 MB
  | Peak value for overall tracked memory usage:
  |   Minimum:        2.288 MB (on task 3 after allocating wave)
  |   Maximum:        2.319 MB (on task 1 after allocating wave)
  |   Average:        2.306 MB
  | Largest tracked array allocation so far:
  |   Minimum:        0.877 MB (hamiltonian_shell on task 3)
  |   Maximum:        0.898 MB (hamiltonian_shell on task 1)
  |   Average:        0.891 MB
  Note:  These values currently only include a subset of arrays which are explicitly tracked.
  The "true" memory usage will be greater.
------------------------------------------------------------
  Available memory after initialize_scf [GB]:     62.41
  Available memory after allocating mixing [GB]:     62.41
  Evaluating new KS density using the density matrix
  Evaluating density matrix
  Time summed over all CPUs for getting density from density matrix: real work        0.574 s, elapsed        0.600 s
  Integration grid: deviation in total charge (<rho> - N_e) =   1.847411E-13

  Time for density update prior                :  max(cpu_time)    wall_clock(cpu1)
  | self-consistency iterative process          :        0.151 s           0.151 s
  Available memory before start of SCF loop [GB]:     62.39

------------------------------------------------------------
          Begin self-consistency iteration #    1

  Date     :  20230627, Time     :  233333.357
------------------------------------------------------------
  Pulay mixing of updated and previous charge densities.
  Available memory per node after mixing [GB]:     62.39
  Renormalizing the density to the exact electron count on the 3D integration grid.
  | Formal number of electrons (from input files) :      28.0000000000
  | Integrated number of electrons on 3D grid     :      27.9998105537
  | Charge integration error                      :      -0.0001894463
  | Normalization factor for density and gradient :       1.0000067660

  Evaluating partitioned Hartree potential by multipole expansion.
  | Original multipole sum: apparent total charge =  -0.389412E-13
  | Sum of charges compensated after spline to logarithmic grids =  -0.243610E-05
  | Analytical far-field extrapolation by fixed multipoles:
  | Hartree multipole sum: apparent total charge =   0.000000E+00
  Summing up the Hartree potential.
  Time summed over all CPUs for potential: real work        0.047 s, elapsed        0.048 s
  | RMS charge density error from multipole expansion :   0.455779E-03
  | Average real-space part of the electrostatic potential :      0.00012862 eV

  Integrating Hamiltonian matrix: batch-based integration.
  Time summed over all CPUs for integration: real work        0.284 s, elapsed        0.287 s

  Updating Kohn-Sham eigenvalues and eigenvectors using ELSI and the (modified) LAPACK eigensolver.
  Starting LAPACK eigensolver
  Finished Cholesky decomposition
  | Time :     0.000 s
  Finished transformation to standard eigenproblem
  | Time :     0.000 s
  Finished solving standard eigenproblem
  | Time :     0.000 s
  Finished back-transformation of eigenvectors
  | Time :     0.000 s

  Obtaining occupation numbers and electronic chemical potential using ELSI.
  | Note that, for insulating systems, the printed 'chemical potential' value is not uniquely defined.
  | It can be anywhere in the energy gap, as long as it correctly separates occupied and unoccupied states.
  | In systems with a gap, the physically relevant chemical potential is the VBM or HOMO.

  | Chemical potential (Fermi level):    -5.09737194 eV
  Writing Kohn-Sham eigenvalues.
  K-point:       1 at    0.000000    0.000000    0.000000 (in units of recip. lattice)

  State    Occupation    Eigenvalue [Ha]    Eigenvalue [eV]
      1       2.00000         -65.788104        -1790.18540
      2       2.00000         -65.788104        -1790.18540
      3       2.00000          -5.140450         -139.87877
      4       2.00000          -5.140200         -139.87197
      5       2.00000          -3.525034          -95.92105
      6       2.00000          -3.525034          -95.92105
      7       2.00000          -3.525034          -95.92105
      8       2.00000          -3.524472          -95.90576
      9       2.00000          -3.524472          -95.90576
     10       2.00000          -3.524472          -95.90576
     11       2.00000          -0.649766          -17.68103
     12       2.00000          -0.222146           -6.04491
     13       2.00000          -0.222146           -6.04491
     14       2.00000          -0.222146           -6.04491
     15       0.00000          -0.121235           -3.29897
     16       0.00000          -0.121235           -3.29897
     17       0.00000          -0.121235           -3.29897
     18       0.00000          -0.106368           -2.89442
     19       0.00000           0.073713            2.00583
     20       0.00000           0.073713            2.00583
     21       0.00000           0.327671            8.91639
     22       0.00000           0.327671            8.91639
     23       0.00000           0.327671            8.91639
     24       0.00000           0.682934           18.58358
     25       0.00000           0.682934           18.58358
     26       0.00000           0.766040           20.84501
     27       0.00000           0.766040           20.84501
     28       0.00000           0.766040           20.84501

  What follows are estimated values for band gap, HOMO, LUMO, etc.
  | They are estimated on a discrete k-point grid and not necessarily exact.
  | For converged numbers, create a DOS and/or band structure plot on a denser k-grid.

  Highest occupied state (VBM) at     -6.04491094 eV (relative to internal zero)
  | Occupation number:      2.00000000
  | K-point:       1 at    0.000000    0.000000    0.000000 (in units of recip. lattice)

  Lowest unoccupied state (CBM) at    -5.04615407 eV (relative to internal zero)
  | Occupation number:      0.00000000
  | K-point:      11 at    0.333333    0.000000    0.333333 (in units of recip. lattice)

  ESTIMATED overall HOMO-LUMO gap:      0.99875687 eV between HOMO at k-point 1 and LUMO at k-point 11
  | This appears to be an indirect band gap.
  | Smallest direct gap :      2.74136680 eV for k_point 19 at    0.666667    0.000000    0.000000 (in units of recip. lattice)
  The gap value is above 0.2 eV. Unless you are using a very sparse k-point grid,
  this system is most likely an insulator or a semiconductor.

  Total energy components:
  | Sum of eigenvalues            :        -329.19658970 Ha       -8957.89497833 eV
  | XC energy correction          :         -41.71032164 Ha       -1134.99559972 eV
  | XC potential correction       :          53.86624849 Ha        1465.77519913 eV
  | Free-atom electrostatic energy:        -263.65609373 Ha       -7174.44734228 eV
  | Hartree energy correction     :           0.00652294 Ha           0.17749811 eV
  | Entropy correction            :          -0.00000000 Ha          -0.00000000 eV
  | ---------------------------
  | Total energy                  :        -580.69023364 Ha      -15801.38522310 eV
  | Total energy, T -> 0          :        -580.69023364 Ha      -15801.38522310 eV  <-- do not rely on this value for anything but (periodic) metals
  | Electronic free energy        :        -580.69023364 Ha      -15801.38522310 eV

  Derived energy quantities:
  | Kinetic energy                :         582.30474157 Ha       15845.31821890 eV
  | Electrostatic energy          :       -1121.28465357 Ha      -30511.70784228 eV
  | Energy correction for multipole
  | error in Hartree potential    :           0.00036353 Ha           0.00989202 eV
  | Sum of eigenvalues per atom                           :       -4478.94748917 eV
  | Total energy (T->0) per atom                          :       -7900.69261155 eV  <-- do not rely on this value for anything but (periodic) metals
  | Electronic free energy per atom                       :       -7900.69261155 eV
  Evaluating new KS density using the density matrix
  Evaluating density matrix
  Time summed over all CPUs for getting density from density matrix: real work        0.569 s, elapsed        0.586 s
  Integration grid: deviation in total charge (<rho> - N_e) =   1.065814E-13

  Self-consistency convergence accuracy:
  | Change of charge density      :  0.1059E+00
  | Change of unmixed KS density  :  0.3260E+02
  | Change of sum of eigenvalues  : -0.1740E+00 eV
  | Change of total energy        : -0.3636E-03 eV


------------------------------------------------------------
  End self-consistency iteration #     1       :  max(cpu_time)    wall_clock(cpu1)
  | Time for this iteration                     :        0.339 s           0.339 s
  | Charge density update                       :        0.147 s           0.147 s
  | Density mixing & preconditioning            :        0.066 s           0.065 s
  | Hartree multipole update                    :        0.001 s           0.001 s
  | Hartree multipole summation                 :        0.050 s           0.050 s
  | Integration                                 :        0.072 s           0.072 s
  | Solution of K.-S. eqns.                     :        0.003 s           0.003 s
  | Total energy evaluation                     :        0.000 s           0.001 s

  Partial memory accounting:
  | Current value for overall tracked memory usage:
  |   Minimum:        2.043 MB (on task 2)
  |   Maximum:        2.076 MB (on task 0)
  |   Average:        2.067 MB
  | Peak value for overall tracked memory usage:
  |   Minimum:        4.612 MB (on task 3 after allocating gradient_basis_wave)
  |   Maximum:        4.652 MB (on task 1 after allocating gradient_basis_wave)
  |   Average:        4.632 MB
  | Largest tracked array allocation so far:
  |   Minimum:        0.877 MB (hamiltonian_shell on task 3)
  |   Maximum:        0.898 MB (hamiltonian_shell on task 1)
  |   Average:        0.891 MB
  Note:  These values currently only include a subset of arrays which are explicitly tracked.
  The "true" memory usage will be greater.
------------------------------------------------------------

------------------------------------------------------------
          Begin self-consistency iteration #    2

  Date     :  20230627, Time     :  233333.697
------------------------------------------------------------
  Pulay mixing of updated and previous charge densities.
  Available memory per node after mixing [GB]:     62.39
  Renormalizing the density to the exact electron count on the 3D integration grid.
  | Formal number of electrons (from input files) :      28.0000000000
  | Integrated number of electrons on 3D grid     :      27.9962957517
  | Charge integration error                      :      -0.0037042483
  | Normalization factor for density and gradient :       1.0001323121

  Evaluating partitioned Hartree potential by multipole expansion.
  | Original multipole sum: apparent total charge =   0.303544E-14
  | Sum of charges compensated after spline to logarithmic grids =  -0.516963E-04
  | Analytical far-field extrapolation by fixed multipoles:
  | Hartree multipole sum: apparent total charge =   0.000000E+00
  Summing up the Hartree potential.
  Time summed over all CPUs for potential: real work        0.057 s, elapsed        0.058 s
  | RMS charge density error from multipole expansion :   0.967580E-02
  | Average real-space part of the electrostatic potential :     -0.00016139 eV

  Integrating Hamiltonian matrix: batch-based integration.
  Time summed over all CPUs for integration: real work        0.285 s, elapsed        0.289 s

  Updating Kohn-Sham eigenvalues and eigenvectors using ELSI and the (modified) LAPACK eigensolver.
  Starting LAPACK eigensolver
  Finished Cholesky decomposition
  | Time :     0.000 s
  Finished transformation to standard eigenproblem
  | Time :     0.000 s
  Finished solving standard eigenproblem
  | Time :     0.000 s
  Finished back-transformation of eigenvectors
  | Time :     0.000 s

  Obtaining occupation numbers and electronic chemical potential using ELSI.
  | Note that, for insulating systems, the printed 'chemical potential' value is not uniquely defined.
  | It can be anywhere in the energy gap, as long as it correctly separates occupied and unoccupied states.
  | In systems with a gap, the physically relevant chemical potential is the VBM or HOMO.

  | Chemical potential (Fermi level):    -4.97633177 eV
  What follows are estimated values for band gap, HOMO, LUMO, etc.
  | They are estimated on a discrete k-point grid and not necessarily exact.
  | For converged numbers, create a DOS and/or band structure plot on a denser k-grid.

  Highest occupied state (VBM) at     -5.83990147 eV (relative to internal zero)
  | Occupation number:      2.00000000
  | K-point:       1 at    0.000000    0.000000    0.000000 (in units of recip. lattice)

  Lowest unoccupied state (CBM) at    -4.92599951 eV (relative to internal zero)
  | Occupation number:      0.00000000
  | K-point:       9 at    0.000000    0.666667    0.666667 (in units of recip. lattice)

  ESTIMATED overall HOMO-LUMO gap:      0.91390195 eV between HOMO at k-point 1 and LUMO at k-point 9
  | This appears to be an indirect band gap.
  | Smallest direct gap :      2.67617180 eV for k_point 1 at    0.000000    0.000000    0.000000 (in units of recip. lattice)
  The gap value is above 0.2 eV. Unless you are using a very sparse k-point grid,
  this system is most likely an insulator or a semiconductor.

  Checking to see if s.c.f. parameters should be adjusted.
  The system likely has a gap. Increased the default Pulay mixing parameter (charge_mix_param). Value:   0.200000 .
  Kept the default occupation width. Value:   0.010000 eV.

  Total energy components:
  | Sum of eigenvalues            :        -329.32835269 Ha       -8961.48043169 eV
  | XC energy correction          :         -41.71540944 Ha       -1135.13404591 eV
  | XC potential correction       :          53.87117321 Ha        1465.90920761 eV
  | Free-atom electrostatic energy:        -263.65609373 Ha       -7174.44734228 eV
  | Hartree energy correction     :           0.13886184 Ha           3.77862293 eV
  | Entropy correction            :          -0.00000000 Ha          -0.00000000 eV
  | ---------------------------
  | Total energy                  :        -580.68982081 Ha      -15801.37398934 eV
  | Total energy, T -> 0          :        -580.68982081 Ha      -15801.37398934 eV  <-- do not rely on this value for anything but (periodic) metals
  | Electronic free energy        :        -580.68982081 Ha      -15801.37398934 eV

  Derived energy quantities:
  | Kinetic energy                :         581.85151086 Ha       15832.98518389 eV
  | Electrostatic energy          :       -1120.82592223 Ha      -30499.22512731 eV
  | Energy correction for multipole
  | error in Hartree potential    :           0.00785451 Ha           0.21373207 eV
  | Sum of eigenvalues per atom                           :       -4480.74021585 eV
  | Total energy (T->0) per atom                          :       -7900.68699467 eV  <-- do not rely on this value for anything but (periodic) metals
  | Electronic free energy per atom                       :       -7900.68699467 eV
  Evaluating new KS density using the density matrix
  Evaluating density matrix
  Time summed over all CPUs for getting density from density matrix: real work        0.565 s, elapsed        0.582 s
  Integration grid: deviation in total charge (<rho> - N_e) =   2.486900E-13

  Self-consistency convergence accuracy:
  | Change of charge density      :  0.1010E+00
  | Change of unmixed KS density  :  0.1515E-03
  | Change of sum of eigenvalues  : -0.3585E+01 eV
  | Change of total energy        :  0.1123E-01 eV


------------------------------------------------------------
  End self-consistency iteration #     2       :  max(cpu_time)    wall_clock(cpu1)
  | Time for this iteration                     :        0.359 s           0.359 s
  | Charge density update                       :        0.146 s           0.147 s
  | Density mixing & preconditioning            :        0.075 s           0.075 s
  | Hartree multipole update                    :        0.001 s           0.001 s
  | Hartree multipole summation                 :        0.060 s           0.060 s
  | Integration                                 :        0.073 s           0.073 s
  | Solution of K.-S. eqns.                     :        0.003 s           0.003 s
  | Total energy evaluation                     :        0.000 s           0.000 s

  Partial memory accounting:
  | Current value for overall tracked memory usage:
  |   Minimum:        2.043 MB (on task 2)
  |   Maximum:        2.077 MB (on task 0)
  |   Average:        2.067 MB
  | Peak value for overall tracked memory usage:
  |   Minimum:        4.612 MB (on task 3 after allocating gradient_basis_wave)
  |   Maximum:        4.653 MB (on task 1 after allocating gradient_basis_wave)
  |   Average:        4.632 MB
  | Largest tracked array allocation so far:
  |   Minimum:        0.877 MB (hamiltonian_shell on task 3)
  |   Maximum:        0.898 MB (hamiltonian_shell on task 1)
  |   Average:        0.891 MB
  Note:  These values currently only include a subset of arrays which are explicitly tracked.
  The "true" memory usage will be greater.
------------------------------------------------------------

------------------------------------------------------------
          Begin self-consistency iteration #    3

  Date     :  20230627, Time     :  233334.056
------------------------------------------------------------
  Pulay mixing of updated and previous charge densities.
  Available memory per node after mixing [GB]:     62.39
  Renormalizing the density to the exact electron count on the 3D integration grid.
  | Formal number of electrons (from input files) :      28.0000000000
  | Integrated number of electrons on 3D grid     :      28.0029010302
  | Charge integration error                      :       0.0029010302
  | Normalization factor for density and gradient :       0.9998964025

  Evaluating partitioned Hartree potential by multipole expansion.
  | Original multipole sum: apparent total charge =  -0.587532E-13
  | Sum of charges compensated after spline to logarithmic grids =  -0.483480E-04
  | Analytical far-field extrapolation by fixed multipoles:
  | Hartree multipole sum: apparent total charge =   0.000000E+00
  Summing up the Hartree potential.
  Time summed over all CPUs for potential: real work        0.059 s, elapsed        0.063 s
  | RMS charge density error from multipole expansion :   0.895007E-02
  | Average real-space part of the electrostatic potential :     -0.05975046 eV

  Integrating Hamiltonian matrix: batch-based integration.
  Time summed over all CPUs for integration: real work        0.287 s, elapsed        0.290 s

  Updating Kohn-Sham eigenvalues and eigenvectors using ELSI and the (modified) LAPACK eigensolver.
  Starting LAPACK eigensolver
  Finished Cholesky decomposition
  | Time :     0.000 s
  Finished transformation to standard eigenproblem
  | Time :     0.000 s
  Finished solving standard eigenproblem
  | Time :     0.000 s
  Finished back-transformation of eigenvectors
  | Time :     0.000 s

  Obtaining occupation numbers and electronic chemical potential using ELSI.
  | Note that, for insulating systems, the printed 'chemical potential' value is not uniquely defined.
  | It can be anywhere in the energy gap, as long as it correctly separates occupied and unoccupied states.
  | In systems with a gap, the physically relevant chemical potential is the VBM or HOMO.

  | Chemical potential (Fermi level):    -5.02406014 eV
  What follows are estimated values for band gap, HOMO, LUMO, etc.
  | They are estimated on a discrete k-point grid and not necessarily exact.
  | For converged numbers, create a DOS and/or band structure plot on a denser k-grid.

  Highest occupied state (VBM) at     -5.93531099 eV (relative to internal zero)
  | Occupation number:      2.00000000
  | K-point:       1 at    0.000000    0.000000    0.000000 (in units of recip. lattice)

  Lowest unoccupied state (CBM) at    -4.97331413 eV (relative to internal zero)
  | Occupation number:      0.00000000
  | K-point:      25 at    0.666667    0.666667    0.000000 (in units of recip. lattice)

  ESTIMATED overall HOMO-LUMO gap:      0.96199685 eV between HOMO at k-point 1 and LUMO at k-point 25
  | This appears to be an indirect band gap.
  | Smallest direct gap :      2.70329874 eV for k_point 1 at    0.000000    0.000000    0.000000 (in units of recip. lattice)
  The gap value is above 0.2 eV. Unless you are using a very sparse k-point grid,
  this system is most likely an insulator or a semiconductor.

  Total energy components:
  | Sum of eigenvalues            :        -329.59407512 Ha       -8968.71110700 eV
  | XC energy correction          :         -41.69470321 Ha       -1134.57060053 eV
  | XC potential correction       :          53.84395665 Ha        1465.16860740 eV
  | Free-atom electrostatic energy:        -263.65609373 Ha       -7174.44734228 eV
  | Hartree energy correction     :           0.41141367 Ha          11.19513551 eV
  | Entropy correction            :          -0.00000000 Ha          -0.00000000 eV
  | ---------------------------
  | Total energy                  :        -580.68950174 Ha      -15801.36530690 eV
  | Total energy, T -> 0          :        -580.68950174 Ha      -15801.36530690 eV  <-- do not rely on this value for anything but (periodic) metals
  | Electronic free energy        :        -580.68950174 Ha      -15801.36530690 eV

  Derived energy quantities:
  | Kinetic energy                :         581.66119223 Ha       15827.80635038 eV
  | Electrostatic energy          :       -1120.65599076 Ha      -30494.60105675 eV
  | Energy correction for multipole
  | error in Hartree potential    :           0.00739927 Ha           0.20134433 eV
  | Sum of eigenvalues per atom                           :       -4484.35555350 eV
  | Total energy (T->0) per atom                          :       -7900.68265345 eV  <-- do not rely on this value for anything but (periodic) metals
  | Electronic free energy per atom                       :       -7900.68265345 eV
  Evaluating new KS density using the density matrix
  Evaluating density matrix
  Time summed over all CPUs for getting density from density matrix: real work        0.548 s, elapsed        0.555 s
  Integration grid: deviation in total charge (<rho> - N_e) =   1.776357E-13

  Self-consistency convergence accuracy:
  | Change of charge density      :  0.1225E-01
  | Change of unmixed KS density  :  0.3278E-02
  | Change of sum of eigenvalues  : -0.7231E+01 eV
  | Change of total energy        :  0.8682E-02 eV


------------------------------------------------------------
  End self-consistency iteration #     3       :  max(cpu_time)    wall_clock(cpu1)
  | Time for this iteration                     :        0.358 s           0.358 s
  | Charge density update                       :        0.140 s           0.139 s
  | Density mixing & preconditioning            :        0.076 s           0.076 s
  | Hartree multipole update                    :        0.001 s           0.001 s
  | Hartree multipole summation                 :        0.065 s           0.064 s
  | Integration                                 :        0.073 s           0.073 s
  | Solution of K.-S. eqns.                     :        0.004 s           0.004 s
  | Total energy evaluation                     :        0.000 s           0.001 s

  Partial memory accounting:
  | Current value for overall tracked memory usage:
  |   Minimum:        2.043 MB (on task 2)
  |   Maximum:        2.077 MB (on task 0)
  |   Average:        2.068 MB
  | Peak value for overall tracked memory usage:
  |   Minimum:        4.612 MB (on task 3 after allocating gradient_basis_wave)
  |   Maximum:        4.653 MB (on task 1 after allocating gradient_basis_wave)
  |   Average:        4.633 MB
  | Largest tracked array allocation so far:
  |   Minimum:        0.877 MB (hamiltonian_shell on task 3)
  |   Maximum:        0.898 MB (hamiltonian_shell on task 1)
  |   Average:        0.891 MB
  Note:  These values currently only include a subset of arrays which are explicitly tracked.
  The "true" memory usage will be greater.
------------------------------------------------------------

------------------------------------------------------------
          Begin self-consistency iteration #    4

  Date     :  20230627, Time     :  233334.414
------------------------------------------------------------
  Pulay mixing of updated and previous charge densities.
  Available memory per node after mixing [GB]:     62.39
  Renormalizing the density to the exact electron count on the 3D integration grid.
  | Formal number of electrons (from input files) :      28.0000000000
  | Integrated number of electrons on 3D grid     :      27.9991020739
  | Charge integration error                      :      -0.0008979261
  | Normalization factor for density and gradient :       1.0000320698

  Evaluating partitioned Hartree potential by multipole expansion.
  | Original multipole sum: apparent total charge =  -0.623795E-13
  | Sum of charges compensated after spline to logarithmic grids =  -0.567759E-04
  | Analytical far-field extrapolation by fixed multipoles:
  | Hartree multipole sum: apparent total charge =   0.000000E+00
  Summing up the Hartree potential.
  Time summed over all CPUs for potential: real work        0.059 s, elapsed        0.063 s
  | RMS charge density error from multipole expansion :   0.104506E-01
  | Average real-space part of the electrostatic potential :     -0.05314083 eV

  Integrating Hamiltonian matrix: batch-based integration.
  Time summed over all CPUs for integration: real work        0.286 s, elapsed        0.292 s

  Updating Kohn-Sham eigenvalues and eigenvectors using ELSI and the (modified) LAPACK eigensolver.
  Starting LAPACK eigensolver
  Finished Cholesky decomposition
  | Time :     0.000 s
  Finished transformation to standard eigenproblem
  | Time :     0.000 s
  Finished solving standard eigenproblem
  | Time :     0.000 s
  Finished back-transformation of eigenvectors
  | Time :     0.000 s

  Obtaining occupation numbers and electronic chemical potential using ELSI.
  | Note that, for insulating systems, the printed 'chemical potential' value is not uniquely defined.
  | It can be anywhere in the energy gap, as long as it correctly separates occupied and unoccupied states.
  | In systems with a gap, the physically relevant chemical potential is the VBM or HOMO.

  | Chemical potential (Fermi level):    -4.99492492 eV
  What follows are estimated values for band gap, HOMO, LUMO, etc.
  | They are estimated on a discrete k-point grid and not necessarily exact.
  | For converged numbers, create a DOS and/or band structure plot on a denser k-grid.

  Highest occupied state (VBM) at     -5.88677082 eV (relative to internal zero)
  | Occupation number:      2.00000000
  | K-point:       1 at    0.000000    0.000000    0.000000 (in units of recip. lattice)

  Lowest unoccupied state (CBM) at    -4.94417401 eV (relative to internal zero)
  | Occupation number:      0.00000000
  | K-point:       9 at    0.000000    0.666667    0.666667 (in units of recip. lattice)

  ESTIMATED overall HOMO-LUMO gap:      0.94259681 eV between HOMO at k-point 1 and LUMO at k-point 9
  | This appears to be an indirect band gap.
  | Smallest direct gap :      2.68854308 eV for k_point 1 at    0.000000    0.000000    0.000000 (in units of recip. lattice)
  The gap value is above 0.2 eV. Unless you are using a very sparse k-point grid,
  this system is most likely an insulator or a semiconductor.

  Total energy components:
  | Sum of eigenvalues            :        -329.57477867 Ha       -8968.18602384 eV
  | XC energy correction          :         -41.70102275 Ha       -1134.74256420 eV
  | XC potential correction       :          53.85182108 Ha        1465.38260941 eV
  | Free-atom electrostatic energy:        -263.65609373 Ha       -7174.44734228 eV
  | Hartree energy correction     :           0.39058185 Ha          10.62827280 eV
  | Entropy correction            :          -0.00000000 Ha          -0.00000000 eV
  | ---------------------------
  | Total energy                  :        -580.68949223 Ha      -15801.36504811 eV
  | Total energy, T -> 0          :        -580.68949223 Ha      -15801.36504811 eV  <-- do not rely on this value for anything but (periodic) metals
  | Electronic free energy        :        -580.68949223 Ha      -15801.36504811 eV

  Derived energy quantities:
  | Kinetic energy                :         581.64308120 Ha       15827.31352418 eV
  | Electrostatic energy          :       -1120.63155067 Ha      -30493.93600808 eV
  | Energy correction for multipole
  | error in Hartree potential    :           0.00861470 Ha           0.23441794 eV
  | Sum of eigenvalues per atom                           :       -4484.09301192 eV
  | Total energy (T->0) per atom                          :       -7900.68252405 eV  <-- do not rely on this value for anything but (periodic) metals
  | Electronic free energy per atom                       :       -7900.68252405 eV
  Evaluating new KS density using the density matrix
  Evaluating density matrix
  Time summed over all CPUs for getting density from density matrix: real work        0.566 s, elapsed        0.577 s
  Integration grid: deviation in total charge (<rho> - N_e) =   1.776357E-13

  Self-consistency convergence accuracy:
  | Change of charge density      :  0.9600E-02
  | Change of unmixed KS density  :  0.1634E-02
  | Change of sum of eigenvalues  :  0.5251E+00 eV
  | Change of total energy        :  0.2588E-03 eV


------------------------------------------------------------
  End self-consistency iteration #     4       :  max(cpu_time)    wall_clock(cpu1)
  | Time for this iteration                     :        0.359 s           0.359 s
  | Charge density update                       :        0.145 s           0.145 s
  | Density mixing & preconditioning            :        0.071 s           0.071 s
  | Hartree multipole update                    :        0.001 s           0.001 s
  | Hartree multipole summation                 :        0.065 s           0.065 s
  | Integration                                 :        0.073 s           0.073 s
  | Solution of K.-S. eqns.                     :        0.003 s           0.004 s
  | Total energy evaluation                     :        0.000 s           0.000 s

  Partial memory accounting:
  | Current value for overall tracked memory usage:
  |   Minimum:        2.043 MB (on task 2)
  |   Maximum:        2.077 MB (on task 0)
  |   Average:        2.068 MB
  | Peak value for overall tracked memory usage:
  |   Minimum:        4.612 MB (on task 3 after allocating gradient_basis_wave)
  |   Maximum:        4.653 MB (on task 1 after allocating gradient_basis_wave)
  |   Average:        4.633 MB
  | Largest tracked array allocation so far:
  |   Minimum:        0.877 MB (hamiltonian_shell on task 3)
  |   Maximum:        0.898 MB (hamiltonian_shell on task 1)
  |   Average:        0.891 MB
  Note:  These values currently only include a subset of arrays which are explicitly tracked.
  The "true" memory usage will be greater.
------------------------------------------------------------

------------------------------------------------------------
          Begin self-consistency iteration #    5

  Date     :  20230627, Time     :  233334.773
------------------------------------------------------------
  Pulay mixing of updated and previous charge densities.
  Available memory per node after mixing [GB]:     62.39
  Renormalizing the density to the exact electron count on the 3D integration grid.
  | Formal number of electrons (from input files) :      28.0000000000
  | Integrated number of electrons on 3D grid     :      28.0008971297
  | Charge integration error                      :       0.0008971297
  | Normalization factor for density and gradient :       0.9999679607

  Evaluating partitioned Hartree potential by multipole expansion.
  | Original multipole sum: apparent total charge =  -0.264814E-13
  | Sum of charges compensated after spline to logarithmic grids =  -0.545425E-04
  | Analytical far-field extrapolation by fixed multipoles:
  | Hartree multipole sum: apparent total charge =   0.000000E+00
  Summing up the Hartree potential.
  Time summed over all CPUs for potential: real work        0.059 s, elapsed        0.063 s
  | RMS charge density error from multipole expansion :   0.980772E-02
  | Average real-space part of the electrostatic potential :     -0.06793164 eV

  Integrating Hamiltonian matrix: batch-based integration.
  Time summed over all CPUs for integration: real work        0.286 s, elapsed        0.291 s

  Updating Kohn-Sham eigenvalues and eigenvectors using ELSI and the (modified) LAPACK eigensolver.
  Starting LAPACK eigensolver
  Finished Cholesky decomposition
  | Time :     0.001 s
  Finished transformation to standard eigenproblem
  | Time :     0.000 s
  Finished solving standard eigenproblem
  | Time :     0.000 s
  Finished back-transformation of eigenvectors
  | Time :     0.000 s

  Obtaining occupation numbers and electronic chemical potential using ELSI.
  | Note that, for insulating systems, the printed 'chemical potential' value is not uniquely defined.
  | It can be anywhere in the energy gap, as long as it correctly separates occupied and unoccupied states.
  | In systems with a gap, the physically relevant chemical potential is the VBM or HOMO.

  | Chemical potential (Fermi level):    -5.01318768 eV
  What follows are estimated values for band gap, HOMO, LUMO, etc.
  | They are estimated on a discrete k-point grid and not necessarily exact.
  | For converged numbers, create a DOS and/or band structure plot on a denser k-grid.

  Highest occupied state (VBM) at     -5.91958582 eV (relative to internal zero)
  | Occupation number:      2.00000000
  | K-point:       1 at    0.000000    0.000000    0.000000 (in units of recip. lattice)

  Lowest unoccupied state (CBM) at    -4.96252478 eV (relative to internal zero)
  | Occupation number:      0.00000000
  | K-point:       5 at    0.000000    0.333333    0.333333 (in units of recip. lattice)

  ESTIMATED overall HOMO-LUMO gap:      0.95706104 eV between HOMO at k-point 1 and LUMO at k-point 5
  | This appears to be an indirect band gap.
  | Smallest direct gap :      2.69891815 eV for k_point 1 at    0.000000    0.000000    0.000000 (in units of recip. lattice)
  The gap value is above 0.2 eV. Unless you are using a very sparse k-point grid,
  this system is most likely an insulator or a semiconductor.

  Total energy components:
  | Sum of eigenvalues            :        -329.61352878 Ha       -8969.24046794 eV
  | XC energy correction          :         -41.69846233 Ha       -1134.67289157 eV
  | XC potential correction       :          53.84846399 Ha        1465.29125847 eV
  | Free-atom electrostatic energy:        -263.65609373 Ha       -7174.44734228 eV
  | Hartree energy correction     :           0.43015752 Ha          11.70518175 eV
  | Entropy correction            :          -0.00000000 Ha          -0.00000000 eV
  | ---------------------------
  | Total energy                  :        -580.68946332 Ha      -15801.36426157 eV
  | Total energy, T -> 0          :        -580.68946332 Ha      -15801.36426157 eV  <-- do not rely on this value for anything but (periodic) metals
  | Electronic free energy        :        -580.68946332 Ha      -15801.36426157 eV

  Derived energy quantities:
  | Kinetic energy                :         581.69390885 Ha       15828.69661490 eV
  | Electrostatic energy          :       -1120.68490984 Ha      -30495.38798490 eV
  | Energy correction for multipole
  | error in Hartree potential    :           0.00807377 Ha           0.21969853 eV
  | Sum of eigenvalues per atom                           :       -4484.62023397 eV
  | Total energy (T->0) per atom                          :       -7900.68213078 eV  <-- do not rely on this value for anything but (periodic) metals
  | Electronic free energy per atom                       :       -7900.68213078 eV
  Evaluating new KS density using the density matrix
  Evaluating density matrix
  Time summed over all CPUs for getting density from density matrix: real work        0.550 s, elapsed        0.559 s
  Integration grid: deviation in total charge (<rho> - N_e) =   2.060574E-13

  Self-consistency convergence accuracy:
  | Change of charge density      :  0.8303E-02
  | Change of unmixed KS density  :  0.5101E-03
  | Change of sum of eigenvalues  : -0.1054E+01 eV
  | Change of total energy        :  0.7865E-03 eV


------------------------------------------------------------
  End self-consistency iteration #     5       :  max(cpu_time)    wall_clock(cpu1)
  | Time for this iteration                     :        0.354 s           0.355 s
  | Charge density update                       :        0.141 s           0.140 s
  | Density mixing & preconditioning            :        0.071 s           0.071 s
  | Hartree multipole update                    :        0.001 s           0.001 s
  | Hartree multipole summation                 :        0.065 s           0.065 s
  | Integration                                 :        0.073 s           0.073 s
  | Solution of K.-S. eqns.                     :        0.003 s           0.004 s
  | Total energy evaluation                     :        0.000 s           0.000 s

  Partial memory accounting:
  | Current value for overall tracked memory usage:
  |   Minimum:        2.043 MB (on task 2)
  |   Maximum:        2.077 MB (on task 0)
  |   Average:        2.068 MB
  | Peak value for overall tracked memory usage:
  |   Minimum:        4.612 MB (on task 3 after allocating gradient_basis_wave)
  |   Maximum:        4.653 MB (on task 1 after allocating gradient_basis_wave)
  |   Average:        4.633 MB
  | Largest tracked array allocation so far:
  |   Minimum:        0.877 MB (hamiltonian_shell on task 3)
  |   Maximum:        0.898 MB (hamiltonian_shell on task 1)
  |   Average:        0.891 MB
  Note:  These values currently only include a subset of arrays which are explicitly tracked.
  The "true" memory usage will be greater.
------------------------------------------------------------

------------------------------------------------------------
          Begin self-consistency iteration #    6

  Date     :  20230627, Time     :  233335.128
------------------------------------------------------------
  Pulay mixing of updated and previous charge densities.
  Available memory per node after mixing [GB]:     62.39
  Renormalizing the density to the exact electron count on the 3D integration grid.
  | Formal number of electrons (from input files) :      28.0000000000
  | Integrated number of electrons on 3D grid     :      28.0000119765
  | Charge integration error                      :       0.0000119765
  | Normalization factor for density and gradient :       0.9999995723

  Evaluating partitioned Hartree potential by multipole expansion.
  | Original multipole sum: apparent total charge =  -0.201307E-13
  | Sum of charges compensated after spline to logarithmic grids =  -0.543529E-04
  | Analytical far-field extrapolation by fixed multipoles:
  | Hartree multipole sum: apparent total charge =   0.000000E+00
  Summing up the Hartree potential.
  Time summed over all CPUs for potential: real work        0.059 s, elapsed        0.063 s
  | RMS charge density error from multipole expansion :   0.979455E-02
  | Average real-space part of the electrostatic potential :     -0.06843702 eV

  Integrating Hamiltonian matrix: batch-based integration.
  Time summed over all CPUs for integration: real work        0.286 s, elapsed        0.292 s

  Updating Kohn-Sham eigenvalues and eigenvectors using ELSI and the (modified) LAPACK eigensolver.
  Starting LAPACK eigensolver
  Finished Cholesky decomposition
  | Time :     0.000 s
  Finished transformation to standard eigenproblem
  | Time :     0.000 s
  Finished solving standard eigenproblem
  | Time :     0.000 s
  Finished back-transformation of eigenvectors
  | Time :     0.000 s

  Obtaining occupation numbers and electronic chemical potential using ELSI.
  | Note that, for insulating systems, the printed 'chemical potential' value is not uniquely defined.
  | It can be anywhere in the energy gap, as long as it correctly separates occupied and unoccupied states.
  | In systems with a gap, the physically relevant chemical potential is the VBM or HOMO.

  | Chemical potential (Fermi level):    -5.01357613 eV
  What follows are estimated values for band gap, HOMO, LUMO, etc.
  | They are estimated on a discrete k-point grid and not necessarily exact.
  | For converged numbers, create a DOS and/or band structure plot on a denser k-grid.

  Highest occupied state (VBM) at     -5.92065573 eV (relative to internal zero)
[...]
  | 3-center preparation SBTs                   :       11.508 s          11.510 s
  | 3-center combinations                       :        1.393 s           1.354 s
  | Overal 3-center time                        :       13.052 s          13.053 s
  | LVL initialization                          :        0.016 s           0.016 s
  | Whole LVL-triples                           :        0.016 s           0.016 s

  Available memory per node after cleanup_lvl_triples [GB]:     62.07
  Time for gw_get_lvl_tricoeff_recip [s]:      0.10
  Available memory per node after gw_get_lvl_tricoeff_recip [GB]:     62.07
 
  Finishing computation of the periodic LVL triple coefficients ...
 
  Atomic logSBT for 2-center Coulomb matrix    :  max(cpu_time)    wall_clock(cpu1)
  | TB initialization                           :        0.063 s           0.064 s
  | TB usage                                    :        0.031 s           0.030 s

  Preparing TB like auxiliary 2-center cutCoul matrix
  SBT integration errors (all should be 'small'):
  large logFT aliasing -> increase N/lnrange
  large SBT aliasing -> decrease lnk0 & increase lnk0+lnrange
  large SBT ringing -> decrease lnr0 & increase lnr0+lnrange
  |            El't  L: logFT-al.   small-k   large-k   small-r   large-r
  Initializing cut Coulomb operator.
  | Cut [erfc(-/+1)/2] from    5.3199 A to    6.3422 A within   15 sbt_grid points.

  | Need to store   588 splines of   193 points taking        896 KiB.
  | Spline reduction from  4096 to   193 points by (cutting and)     1 x coarsening gives error:  0.00E+00
  | Maximum value outside interaction range:  6.66E-16
  Calculating the Coulomb matrix in reciprocal space ...
  Atomic logSBT for 2-center cutCoul matrix    :  max(cpu_time)    wall_clock(cpu1)
  | TB initialization                           :        0.068 s           0.068 s
  | TB usage                                    :        0.047 s           0.052 s

  Atomic logSBT for 2-center cutCoul matrix    :  max(cpu_time)    wall_clock(cpu1)
  | TB initialization                           :        0.068 s           0.068 s
  | TB usage                                    :        0.047 s           0.052 s

  Preparing TB like auxiliary 2-center Coulomb matrix
  SBT integration errors (all should be 'small'):
  large logFT aliasing -> increase N/lnrange
  large SBT aliasing -> decrease lnk0 & increase lnk0+lnrange
  large SBT ringing -> decrease lnr0 & increase lnr0+lnrange
  |            El't  L: logFT-al.   small-k   large-k   small-r   large-r
  | Need to store   588 splines of   127 points taking        600 KiB.
  | Spline reduction from  4096 to   127 points by (cutting and)     1 x coarsening gives error:  0.00E+00
  | Gaussian spline reduction from  4096 to   127 points by (cutting and)     1 x coarsening gives error:  0.00E+00
  | Maximum value outside interaction range:  1.09E-08
  Calculating singularity lifting chi
  | Gamma:  1.00E+00; chi:     86.9200508734139419
  | Gamma:  5.00E-01; chi:     87.4200508734139135; extra:     87.9200508734138850
  | Gamma:  2.50E-01; chi:     87.6700508734140840; extra:     87.9200508734142545
  | Using chi:     87.9200508734142545; last diff:  3.69E-13
  Calculating the Coulomb matrix in reciprocal space ...
  Atomic logSBT for 2-center Coulomb matrix    :  max(cpu_time)    wall_clock(cpu1)
  | TB initialization                           :        0.068 s           0.068 s
  | TB usage                                    :        0.010 s           0.010 s

  Available memory per node after allocate_gw [GB]:     62.07

  Initialising transformed Gauss-Legendre time and frequency grids
  Number of frequency points for self energy.....: 20
  Number of frequency points....................: 20
  Integrating Hamiltonian matrix: batch-based integration.
  Time summed over all CPUs for integration: real work        0.288 s, elapsed        0.292 s
  Preparing TB like auxiliary 2-center Coulomb matrix
  SBT integration errors (all should be 'small'):
  large logFT aliasing -> increase N/lnrange
  large SBT aliasing -> decrease lnk0 & increase lnk0+lnrange
  large SBT ringing -> decrease lnr0 & increase lnr0+lnrange
  |            El't  L: logFT-al.   small-k   large-k   small-r   large-r
  | Need to store   588 splines of   127 points taking        600 KiB.
  | Spline reduction from  4096 to   127 points by (cutting and)     1 x coarsening gives error:  0.00E+00
  Available memory per node after integrate_real_hamiltonian_matrix_p2 [GB]:     62.07
  Calculating macroscopic dielectric function along the imaginary frequency axis ...
  Recalculating HOMO and LUMO levels to determine eigenstates needed for dielectric calculations...


  Index of the first state to include in the calculations of the dielectric function along the imaginary axis :         1
  Index of the last state to include in the calculations of the dielectric function along the imaginary axis :        28

  Allocating        0.157 MB for mommat_full_x_up
  Allocating        0.157 MB for mommat_full_x_low
  Allocating        0.157 MB for mommat_full_y_up
  Allocating        0.157 MB for mommat_full_y_low
  Allocating        0.157 MB for mommat_full_z_up
  Allocating        0.157 MB for mommat_full_z_low
  Allocating        0.019 MB for moment_TZ

  Calculating p_x matrix elements...
  Integrating real-space momentum matrix: batch-based integration.
  Time summed over all CPUs for integration: real work        0.410 s, elapsed        0.415 s

  Calculating p_y matrix elements...
  Integrating real-space momentum matrix: batch-based integration.
  Time summed over all CPUs for integration: real work        0.408 s, elapsed        0.413 s

  Calculating p_z matrix elements...
  Integrating real-space momentum matrix: batch-based integration.
  Time summed over all CPUs for integration: real work        0.408 s, elapsed        0.414 s

  Calculating dielectric tensor elements...

  Initialising transformed Gauss-Legendre time and frequency grids
  Number of frequency points for self energy.....: 20
  Number of frequency points....................: 20

  Initialising transformed Gauss-Legendre time and frequency grids
  Number of frequency points for self energy.....: 20
  Number of frequency points....................: 20

  Initialising transformed Gauss-Legendre time and frequency grids
  Number of frequency points for self energy.....: 20
  Number of frequency points....................: 20

  Initialising transformed Gauss-Legendre time and frequency grids
  Number of frequency points for self energy.....: 20
  Number of frequency points....................: 20

  Initialising transformed Gauss-Legendre time and frequency grids
  Number of frequency points for self energy.....: 20
  Number of frequency points....................: 20

  Initialising transformed Gauss-Legendre time and frequency grids
  Number of frequency points for self energy.....: 20
  Number of frequency points....................: 20

  Initialising transformed Gauss-Legendre time and frequency grids
  Number of frequency points for self energy.....: 20
  Number of frequency points....................: 20

  Initialising transformed Gauss-Legendre time and frequency grids
  Number of frequency points for self energy.....: 20
  Number of frequency points....................: 20

  Initialising transformed Gauss-Legendre time and frequency grids
  Number of frequency points for self energy.....: 20
  Number of frequency points....................: 20

  Initialising transformed Gauss-Legendre time and frequency grids
  Number of frequency points for self energy.....: 20
  Number of frequency points....................: 20

  Initialising transformed Gauss-Legendre time and frequency grids
  Number of frequency points for self energy.....: 20
  Number of frequency points....................: 20

  Initialising transformed Gauss-Legendre time and frequency grids
  Number of frequency points for self energy.....: 20
  Number of frequency points....................: 20

  Initialising transformed Gauss-Legendre time and frequency grids
  Number of frequency points for self energy.....: 20
  Number of frequency points....................: 20

  Initialising transformed Gauss-Legendre time and frequency grids
  Number of frequency points for self energy.....: 20
  Number of frequency points....................: 20

  Initialising transformed Gauss-Legendre time and frequency grids
  Number of frequency points for self energy.....: 20
  Number of frequency points....................: 20

  Initialising transformed Gauss-Legendre time and frequency grids
  Number of frequency points for self energy.....: 20
  Number of frequency points....................: 20

  Initialising transformed Gauss-Legendre time and frequency grids
  Number of frequency points for self energy.....: 20
  Number of frequency points....................: 20

  Initialising transformed Gauss-Legendre time and frequency grids
  Number of frequency points for self energy.....: 20
  Number of frequency points....................: 20

  Available memory per node before evaluate_periodic_gw_selfenergy [GB]:     62.07
 
 ---------------------------------------------------
 ---------------------------------
  Start to calculate the periodic GW self energy  ... 
 ojo gwblocks          24          24           1
 
  Starting the main loop of GW computation
 
  Overlap matrix is not singular
  | Lowest and highest eigenvalues :  0.1165E+00,  0.3288E+01
  Finished singularity check of overlap matrix
  | Time :     0.001 s
  Starting LAPACK eigensolver
  Finished Cholesky decomposition
  | Time :     0.000 s
  Finished transformation to standard eigenproblem
  | Time :     0.000 s
  Finished solving standard eigenproblem
  | Time :     0.000 s
  Finished back-transformation of eigenvectors
  | Time :     0.000 s
  finished   7.1% of GW computation
  finished  14.3% of GW computation
  finished  21.4% of GW computation
  finished  28.6% of GW computation
  finished  35.7% of GW computation
  finished  42.9% of GW computation
  finished  50.0% of GW computation
  finished  57.1% of GW computation
  finished  64.3% of GW computation
  finished  71.4% of GW computation
  finished  78.6% of GW computation
  finished  85.7% of GW computation
  finished  92.9% of GW computation
  finished 100.0% of GW computation
 
 CPOUT:    55095.4751678056     
  Time for evaluate_polarisability_kspace_list [s]:     10.70
 GWOUT:   0.000000000000000E+000
 GWBOUT:    31.1049403999380     
  Atomic logSBT for 2-center Coulomb matrix    :  max(cpu_time)    wall_clock(cpu1)
  | TB initialization                           :        0.064 s           0.064 s
  | TB usage                                    :        0.000 s           0.000 s

  Integrating local/semilocal matrix: batch-based integration.
  Time summed over all CPUs for integration: real work        0.703 s, elapsed        0.833 s

  -------------------------------------------------------------------
  Writing the requested band structure output:
  -------------------------------------------------------------------

 
  Analytical continuation of the self-energy starts...

  Treating all    5 k-points in band plot segment #   1:

  | Maximum value outside interaction range:  6.66E-16
 FMOUT:    52.8177084849473      (48.5150373803506,-4.580454336782099E-016)
 
------------------------------------------------------------------------------
  Start to calculate the exact-exchange and DFT xc contribution for each single-particle level ...

    Using self-consistent/graphical solver to obtain QP energies.

  "GW Band gap" along reciprocal space direction number:    1
  | Lowest unoccupied state:          -4.010552 eV
  | Highest occupied state :          -5.716868 eV
  | Energy difference      :           1.706317 eV

  "GW Band gap" of total set of bands:
  | Lowest unoccupied state:      -4.01055181 eV at k point       0.37500      0.00000      0.37500
  | Highest occupied state :      -5.71686834 eV at k point       0.00000      0.00000      0.00000
  | Energy difference      :       1.70631653 eV


------------------------------------------------------------------------------
  Final output of selected total energy values:

  The following output summarizes some interesting total energy values
  at the end of a run (AFTER all relaxation, molecular dynamics, etc.).

  | Total energy of the DFT / Hartree-Fock s.c.f. calculation      :         -15801.364247327 eV
  | Final zero-broadening corrected energy (caution - metals only) :         -15801.364247327 eV
  | For reference only, the value of 1 Hartree used in FHI-aims is :             27.211384500 eV
  | For reference only, the overall average (free atom contribution
  | + realspace contribution) of the electrostatic potential after
  | s.c.f. convergence is                                          :            -12.871165292 eV

  Before relying on these values, please be sure to understand exactly which
  total energy value is referred to by a given number. Different objects may
  all carry the same name 'total energy'. Definitions:

  Total energy of the DFT / Hartree-Fock s.c.f. calculation:
  | Note that this energy does not include ANY quantities calculated after the
  | s.c.f. cycle, in particular not ANY RPA, MP2, etc. many-body perturbation terms.

  Final zero-broadening corrected energy:
  | For metallic systems only, a broadening of the occupation numbers at the Fermi
  | level can be extrapolated back to zero broadening by an electron-gas inspired
  | formula. For all systems that are not real metals, this value can be
  | meaningless and should be avoided.

------------------------------------------------------------------------------
  Methods described in the following list of references were used in this FHI-aims run.
  If you publish the results, please make sure to cite these reference if they apply.
  FHI-aims is an academic code, and for our developers (often, Ph.D. students
  and postdocs), scientific credit in the community is essential.
  Thank you for helping us!

  For any use of FHI-aims, please cite:

    Volker Blum, Ralf Gehrke, Felix Hanke, Paula Havu, Ville Havu,
    Xinguo Ren, Karsten Reuter, and Matthias Scheffler
    'Ab initio molecular simulations with numeric atom-centered orbitals'
    Computer Physics Communications 180, 2175-2196 (2009)
    http://doi.org/10.1016/j.cpc.2009.06.022


  For Hartree-Fock, hybrid functionals, or many-body perturbation theory used in your run, please cite:

    Xinguo Ren, Patrick Rinke, Volker Blum, Juergen Wieferink, Alex Tkatchenko,
    Andrea Sanfilippo, Karsten Reuter, and Matthias Scheffler,
    'Resolution-of-identity approach to Hartree-Fock, hybrid density functionals,
    RPA, MP2, and GW with numeric atom-centered orbital basis functions'
    New Journal of Physics 14, 053020 (2012).
    http://doi.org/10.1088/1367-2630/14/5/053020


  The provided symmetry information was generated with SPGlib:

    Atsushi Togo, Yusuke Seto, Dimitar Pashov
    SPGlib 1.7.3 obtained from http://spglib.sourceforge.net
    Copyright (C) 2008 Atsushi Togo


  The ELSI infrastructure was used in your run to solve the Kohn-Sham electronic structure.
  Please check out http://elsi-interchange.org to learn more.
  If scalability is important for your project, please acknowledge ELSI by citing:

    V. W-z. Yu, F. Corsetti, A. Garcia, W. P. Huhn, M. Jacquelin, W. Jia,
    B. Lange, L. Lin, J. Lu, W. Mi, A. Seifitokaldani, A. Vazquez-Mayagoitia,
    C. Yang, H. Yang, and V. Blum
    'ELSI: A unified software interface for Kohn-Sham electronic structure solvers'
    Computer Physics Communications 222, 267-285 (2018).
    http://doi.org/10.1016/j.cpc.2017.09.007


  For the real-space grid partitioning and parallelization used in this calculation, please cite:

    Ville Havu, Volker Blum, Paula Havu, and Matthias Scheffler,
    'Efficient O(N) integration for all-electron electronic structure calculation'
    'using numerically tabulated basis functions'
    Journal of Computational Physics 228, 8367-8379 (2009).
    http://doi.org/10.1016/j.jcp.2009.08.008


  The high-level electronic structure method used in your calculation
  employed our efficient localized resolution of identity for the Coulomb operator.
  Some calculations, especially large-scale hybrid density functional theory,
  are only possible thanks to this development. For this feature, please cite:

    Arvid Ihrig, Juergen Wieferink, Igor Ying Zhang, Matti Ropo, Xinguo Ren,
    Patrick Rinke, Matthias Scheffler, and Volker Blum,
    'Accurate localized resolution of identity approach for linear-scaling
    hybrid density functionals and for many-body perturbation theory'
    New Journal of Physics 117, 093020 (2015).
    http://doi.org/10.1088/1367-2630/17/9/093020

  Of course, there are many other important community references, e.g., those cited in the
  above references. Our list is limited to references that describe implementations in the
  FHI-aims code. The reason is purely practical (length of this list) - please credit others as well.

------------------------------------------------------------
          Leaving FHI-aims.
          Date     :  20230627, Time     :  233417.667

          Computational steps:
          | Number of self-consistency cycles          :           10
          | Number of SCF (re)initializations          :            1

          Detailed time accounting                     :  max(cpu_time)    wall_clock(cpu1)
          | Total time                                  :       44.864 s          44.867 s
          | Preparation time                            :        0.095 s           0.096 s
          | Boundary condition initalization            :        0.029 s           0.028 s
          | Grid partitioning                           :        0.017 s           0.017 s
          | Preloading free-atom quantities on grid     :        0.075 s           0.075 s
          | Free-atom superposition energy              :        0.011 s           0.011 s
          | Total time for integrations                 :        0.856 s           0.856 s
          | Product basis setup: Total time             :        0.000 s           0.000 s
          | Product basis: | 2-center integrations     :(       0.000 s)  (       0.000 s)
          | Product basis: | LVL 3-center & coefficient:(       0.000 s)  (       0.000 s)
          | Initialization for periodic correlated calc :       17.675 s          17.675 s
          | Transforming LVL triples to recip. space    :        0.097 s           0.097 s
          | The exact-exchange part of GW calc.         :        0.525 s           0.525 s
          | Total time for polarizability calc.         :       12.343 s          12.344 s
          | Total time for polarizability of k space    :       10.696 s          10.699 s
          | Total time for GW band self-energy calc.    :        7.962 s           7.961 s
          | Aanalytic contiuation time                  :        0.003 s           0.003 s
          | Total time for solution of K.-S. equations  :        0.039 s           0.041 s
          | Total time for density update               :        1.457 s           1.455 s
          | Total time for mixing & preconditioning     :        0.710 s           0.711 s
          | Total time for Hartree multipole update     :        0.008 s           0.009 s
          | Total time for Hartree multipole sum        :        0.628 s           0.626 s
          | Total time for total energy evaluation      :        0.003 s           0.003 s
          | Total time for scaled ZORA corrections      :        0.000 s           0.000 s
          | Total time for band structures, DOS         :        0.000 s           0.000 s


          Have a nice day.
------------------------------------------------------------
