------------------------------------------------------------
          Invoking FHI-aims ...

          When using FHI-aims, please cite the following reference:

            Volker Blum, Ralf Gehrke, Felix Hanke, Paula Havu,
            Ville Havu, Xinguo Ren, Karsten Reuter, and Matthias Scheffler,
            'Ab Initio Molecular Simulations with Numeric Atom-Centered Orbitals',
            Computer Physics Communications 180, 2175-2196 (2009)

          In addition, many other developments in FHI-aims are likely important for
          your particular application. If so, please cite them. A partial list of references
          is written at the end of this file. Thank you for giving credit to the authors
          of these developments.

          For general information about FHI-aims please find us at

            https://fhi-aims.org

          Online tutorials can be found at

            https://fhi-aims-club.gitlab.io/tutorials/tutorials-overview/

          For any questions about FHI-aims, please visit our slack channel at

            https://fhi-aims.slack.com

          and our main development and support site at

            https://aims-git.rz-berlin.mpg.de .

          The latter site, in particular, has a wiki to collect information, as well
          as an issue tracker to log discussions, suggest improvements, and report issues
          or bugs. https://aims-git.rz-berlin.mpg.de is also the main development site
          of the project and all new and updated code versions can be obtained there.
          Please send an email to aims-coordinators@fhi-berlin.mpg.de and we will add
          you to these sites. They are for you and everyone is welcome there.

------------------------------------------------------------



  Date     :  20250626, Time     :  212523.046
  Time zero on CPU 1             :   0.360300000000000E-01  s.
  Internal wall clock time zero  :           520205123.046  s.

  FHI-aims created a unique identifier for this run for later identification
  aims_uuid : 77A6B98F-7D19-467F-AC9C-6D1550DD6D2D

  Build configuration of the current instance of FHI-aims
  -------------------------------------------------------
  FHI-aims version      : 250610
  Commit number         : fe22d641d
  CMake host system     : Darwin-23.4.0
  CMake version         : 4.0.2
  Fortran compiler      : /opt/homebrew/Cellar/mpich/4.3.0/bin/mpifort (GNU) version 13.4.0
  Fortran compiler flags: -fc=gfortran-13 -O3 -fallow-argument-mismatch -ffree-line-length-none -Wl,-ld_classic -Wl,-lstdc++ -O2 -g
  C compiler            : /opt/homebrew/Cellar/mpich/4.3.0/bin/mpicc (GNU) version 13.4.0
  C compiler flags      : -cc=gcc-13 -O3 -Wl,-ld_classic -O2 -g -DNDEBUG
  C++ compiler          : /opt/homebrew/Cellar/mpich/4.3.0/bin/mpicxx (GNU) version 13.4.0
  C++ compiler flags    : -cxx=g++-13 -O3 -Wl,-ld_classic -O2 -g -DNDEBUG
  HIP compiler          :
  HIP compiler flags    :
  HIP GPU arch          :
  Using MPI
  Using ScaLAPACK
  Using LibXC
  Using i-PI
  Using RLSY
  Using GREENX
  Linking against: /opt/packages/scalapack/2.2.0/gcc-13.4.0-mpich-4.3.0-openblas/libscalapack.a
                   /opt/homebrew/Cellar/openblas/0.3.29/lib/libopenblas.dylib

  Using        4 parallel tasks.
  Task        0 on host taiyi reporting.
  Task        1 on host taiyi reporting.
  Task        2 on host taiyi reporting.
  Task        3 on host taiyi reporting.

  Obtaining array dimensions for all initial allocations:
  
  -----------------------------------------------------------------------
  Parsing control.in (first pass over file, find array dimensions only).
  The contents of control.in will be repeated verbatim below
  unless switched off by setting 'verbatim_writeout .false.' .
  in the first line of control.in .
  -----------------------------------------------------------------------
  
  #%FHI-aims
  
  # General setting
  xc               pbe
  relativistic     atomic_zora scalar
  occupation_type  gaussian 0.001
  basis_threshold  1.e-5
  spin collinear
  default_initial_moment 0.0
  
  # Use periodic GW
  qpe_calc         gw_expt
  freq_grid_type   minimax
  frequency_points 6
  anacon_type      0
  
  # Kgrids
  k_grid 3 3 3
  
  # # Compute QPE for all states
  # state_upper_limit 100000
  
  output k_eigenvalue 10000
  output gw_regular_kgrid
  # restart_periodic_gw restart_pgw binary
  # periodic_gw_self_energy_restart rw
  # periodic_gw_optimize_kgrid_symmetry none
  # periodic_gw_use_average_inverse_dm_gamma .true.
  # periodic_gw_discard_wc_gamma .false.
  # periodic_gw_force_finite_size_correction .false.
  # periodic_gw_full_matrix .false.
  # output self_energy_matrix 512 32 .true.
  
  # output librpa binary develop fold_C
  
  # insert species below
  ################################################################################
  #
  #  FHI-aims code project
  #  VB, Fritz-Haber Institut, 2009
  #
  #  Suggested "light" defaults for Si atom (to be pasted into control.in file)
  #  Be sure to double-check any results obtained with these settings for post-processing,
  #  e.g., with the "tight" defaults and larger basis sets.
  #
  #  2020/09/08 Added f function to "light" after reinspection of Delta test outcomes.
  #             This was done for all of Al-Cl and is a tricky decision since it makes
  #             "light" calculations measurably more expensive for these elements.
  #             Nevertheless, outcomes for P, S, Cl (and to some extent, Si) appear
  #             to justify this choice.
  #
  ################################################################################
    species        Si
  #     global species definitions
      nucleus             14
      mass                28.0855
  #
      l_hartree           4
  #
      cut_pot             3.5          1.5  1.0
      basis_dep_cutoff    1e-4
  #
      radial_base         42 5.0
      radial_multiplier   1
      angular_grids       specified
        division   0.5866   50
        division   0.9616  110
        division   1.2249  194
        division   1.3795  302
  #      division   1.4810  434
  #      division   1.5529  590
  #      division   1.6284  770
  #      division   1.7077  974
  #      division   2.4068 1202
  #      outer_grid   974
        outer_grid 302
  ################################################################################
  #
  #  Definition of "minimal" basis
  #
  ################################################################################
  #     valence basis states
      valence      3  s   2.
      valence      3  p   2.
  #     ion occupancy
      ion_occ      3  s   1.
      ion_occ      3  p   1.
  ################################################################################
  #
  #  Suggested additional basis functions. For production calculations,
  #  uncomment them one after another (the most important basis functions are
  #  listed first).
  #
  #  Constructed for dimers: 1.75 A, 2.0 A, 2.25 A, 2.75 A, 3.75 A
  #
  ################################################################################
  #  "First tier" - improvements: -571.96 meV to -37.03 meV
  #     hydro 3 d 4.2
  #     hydro 2 p 1.4
  #     hydro 4 f 6.2
  #     ionic 3 s auto
  #  "Second tier" - improvements: -16.76 meV to -3.03 meV
  #     hydro 3 d 9
  #     hydro 5 g 9.4
  #     hydro 4 p 4
  #     hydro 1 s 0.65
  #  "Third tier" - improvements: -3.89 meV to -0.60 meV
  #     ionic 3 d auto
  #     hydro 3 s 2.6
  #     hydro 4 f 8.4
  #     hydro 3 d 3.4
  #     hydro 3 p 7.8
  #  "Fourth tier" - improvements: -0.33 meV to -0.11 meV
  #     hydro 2 p 1.6
  #     hydro 5 g 10.8
  #     hydro 5 f 11.2
  #     hydro 3 d 1
  #     hydro 4 s 4.5
  #  Further basis functions that fell out of the optimization - noise
  #  level... < -0.08 meV
  #     hydro 4 d 6.6
  #     hydro 5 g 16.4
  #     hydro 4 d 9
  
  
  
  -----------------------------------------------------------------------
  Completed first pass over input file control.in .
  -----------------------------------------------------------------------
  
  
  -----------------------------------------------------------------------
  Parsing geometry.in (first pass over file, find array dimensions only).
  The contents of geometry.in will be repeated verbatim below
  unless switched off by setting 'verbatim_writeout .false.' .
  in the first line of geometry.in .
  -----------------------------------------------------------------------
  
  lattice_vector   3.8301668167   0.0000000000   0.0000000000
  lattice_vector   1.9150834084   3.3170217640   0.0000000000
  lattice_vector   1.9150834084   1.1056739213   3.1273181102
  atom_frac        0.0000000000   0.0000000000   0.0000000000  Si
  atom_frac        0.2500000000   0.2500000000   0.2500000000  Si
  
  -----------------------------------------------------------------------
  Completed first pass over input file geometry.in .
  -----------------------------------------------------------------------
  

  Basic array size parameters:
  | Number of species                 :        1
  | Number of atoms                   :        2
  | Number of lattice vectors         :        3
  | Max. basis fn. angular momentum   :        1
  | Max. atomic/ionic basis occupied n:        3
  | Max. number of basis fn. types    :        1
  | Max. radial fns per species/type  :        5
  | Max. logarithmic grid size        :     1346
  | Max. radial integration grid size :       42
  | Max. angular integration grid size:      302
  | Max. angular grid division number :        8
  | Radial grid for Hartree potential :     1346
  | Number of spin channels           :        2

  Definition of standardized fundamental physical constants in this FHI-aims run:
  | Using the set of values used in FHI-aims up to 2024, which combines values from
  | different CODATA sets - see constants.f90.
  | Use the 'codata' keyword in control.in to change this selection.

  Memory overcommitment: We could not find /proc/sys/vm/overcommit_memory on your system.

------------------------------------------------------------
          Reading file control.in.
------------------------------------------------------------
  XC: Using PBE gradient-corrected functionals.
  Scalar relativistic treatment of kinetic energy: on-site free-atom approximation to ZORA.
  Occupation type: Gaussian broadening, width =   0.100000E-02 eV.
  Threshold for basis singularities:  0.1000E-04
  Spin treatment: Spin density functional theory - collinear spins.
  Initial spin moment per atom:   0.0000
  Periodic GW calculations will be started if finite k point sampling is also set. Please be warned that periodic GW is only at the experimental stage and is still under testing. Be cautious about your results.
  Using minimax frequency grid.
  Number of frequency points used for the self-energy calculation:      6
  Using two-pole fitting for analytical continuation.
  Found k-point grid:         3         3         3
  Number of k-sets of eigenvalues printed out:   10000
  Calculate the periodic GW self-energy on regular k grid.

  Reading configuration options for species Si                  .
  | Found nuclear charge :  14.0000
  | Found atomic mass :    28.085500000000000      amu
  | Found l_max for Hartree potential  :   4
  | Found cutoff potl. onset [A], width [A], scale factor :    3.50000    1.50000    1.00000
  | Threshold for basis-dependent cutoff potential is   0.100000E-03
  | Found data for basic radial integration grid :    42 points, outermost radius =    5.000 A
  | Found multiplier for basic radial grid :   1
  | Found angular grid specification: user-specified.
  | Specified grid contains     5 separate shells.
  | Check grid settings after all constraints further below.
  | Found free-atom valence shell :  3 s   2.000
  | Found free-atom valence shell :  3 p   2.000
  | No ionic wave fns used. Skipping ion_occ.
  | No ionic wave fns used. Skipping ion_occ.
  Species Si                  : Missing cutoff potential type.
  Defaulting to exp(1/x)/(1-x)^2 type cutoff potential.
  Species Si: No 'logarithmic' tag. Using default grid for free atom:
  | Default logarithmic grid data [bohr] : 0.1000E-03 0.1000E+03 0.1012E+01
  Species Si: On-site basis accuracy parameter (for Gram-Schmidt orthonormalisation) not specified.
  Using default value basis_acc =  0.1000000E-03.
  Species Si                  : Using default innermost maximum threshold i_radial=  2 for radial functions.
  Species Si                  : Default cutoff onset for free atom density etc. : 0.35000000E+01 AA.
  Species Si                  : Basic radial grid will be enhanced according to radial_multiplier =   1, to contain    42 grid points.

  Finished reading input file 'control.in'.

------------------------------------------------------------


------------------------------------------------------------
          Reading geometry description geometry.in.
------------------------------------------------------------
  | The smallest distance between any two atoms is         2.34548858 AA.
  | The first atom of this pair is atom number                      1 .
  | The second atom of this pair is atom number                     2 .
  | Wigner-Seitz cell of the first atom image           1     0     0 .
  | (The Wigner-Seitz cell of the second atom is 0 0 0  by definition.)

  Symmetry information by spglib:
  | Precision set to  0.1E-04
  | Number of Operations  : 48
  | Space group           : 227
  | International         : Fd-3m
  | Schoenflies           : Oh^7
  Input structure read successfully.
  The structure contains        2 atoms,  and a total of         28.000 electrons.

  Input geometry:
  | Unit cell:
  |        3.83016682        0.00000000        0.00000000
  |        1.91508341        3.31702176        0.00000000
  |        1.91508341        1.10567392        3.12731811
  | Atomic structure:
  |       Atom                x [A]            y [A]            z [A]
  |    1: Species Si            0.00000000        0.00000000        0.00000000
  |    2: Species Si            1.91508341        1.10567392        0.78182953

  Lattice parameters for 3D lattice (in Angstroms) :     3.830167    3.830167    3.830167
  Angle(s) between unit vectors (in degrees)       :    60.000000   60.000000   60.000000


  Quantities derived from the lattice vectors (in Angstrom^-1):
  | Reciprocal lattice vector 1:  1.640447 -0.947112 -0.669710
  | Reciprocal lattice vector 2: -0.000000  1.894225 -0.669710
  | Reciprocal lattice vector 3:  0.000000 -0.000000  2.009129
  | Unit cell volume                               :   0.397318E+02  Angstrom^3

  Fractional coordinates:
                         L1                L2                L3
       atom_frac         0.00000000        0.00000000        0.00000000  Si
       atom_frac         0.25000000        0.25000000        0.25000000  Si

  Initial moments and charges:
  |  Atom   Moment         Charge        Species
  |     1   0.000000E+00   0.000000E+00   Si
  |     2   0.000000E+00   0.000000E+00   Si

  Slab Identifier: This seems to be a bulk system.

  Finished reading input file 'geometry.in'.



  Consistency checks for stacksize environment parameter are next.

  | Maximum stacksize for task 0: 63 [Mb]
  | Maximum stacksize for task 1: 63 [Mb]
  | Maximum stacksize for task 2: 63 [Mb]
  | Maximum stacksize for task 3: 63 [Mb]
   *** Stacksize is not set to unlimited. This might cause problems...
  | Current stacksize for task 0: 63 [Mb]
  | Current stacksize for task 1: 63 [Mb]
  | Current stacksize for task 2: 63 [Mb]
  | Current stacksize for task 3: 63 [Mb]

  Consistency checks for the contents of control.in are next.

  MPI_IN_PLACE appears to work with this MPI implementation.
  | Keeping use_mpi_in_place .true. (see manual).
  Explicit treatment of the Coulomb operator is needed, but the RI method is not specified.
  Coulomb operator: Defaulting to 'LVL fast' resolution of identity - RI_type = LVL_fast
  Species Si: Using default value for prodbas_acc =   1.000000E-04.
  Species Si: Using default value max_l_prodbas =    20.
  Target number of points in a grid batch is not set. Defaulting to  100
  Method for grid partitioning is not set. Defaulting to parallel hash+maxmin partitioning.
  Batch size limit is not set. Defaulting to    200
  By default, will store active basis functions for each batch.
  If in need of memory, prune_basis_once .false. can be used to disable this option.
  communication_type for Hartree potential was not specified.
  Defaulting to calc_hartree .
  Defaulting to Pulay charge density mixer.
  Pulay mixer: Number of relevant iterations not set.
  Defaulting to    8 iterations.
  Pulay mixer: Number of initial linear mixing iterations not set.
  Defaulting to    0 iterations.
  Work space size for distributed Hartree potential not set.
  Defaulting to   0.200000E+03 MB.
  Mixing parameter for charge density mixing has not been set.
  Using default: charge_mix_param =     0.0500.
  The mixing parameter will be adjusted in iteration number     2 of each s.c.f. cycle (i.e., each geometry step).
  Mixing parameter for spin density mixing has not been set.
  Using charge_mix_param as default:     0.0500.
  Algorithm-dependent basis array size parameters:
  | n_max_pulay                         :        8
  Maximum number of self-consistency iterations not provided.
  Presetting  1000 iterations.
  Presetting      1001 iterations before the initial mixing cycle
  is restarted anyway using the sc_init_iter criterion / keyword.
  Presetting a factor      1.000 between actual scf density residual
  and density convergence criterion sc_accuracy_rho below which sc_init_iter
  takes no effect.
 * No s.c.f. convergence criteria (sc_accuracy_*) were provided in control.in.
 * The run will proceed with a reasonable default guess, but please check whether.
 * the s.c.f. cycles seem to take too much or too little time.
  Calculation of forces was not defined in control.in. No forces will be calculated.
  Geometry relaxation not requested: no relaxation will be performed.
 * Notice: The s.c.f. convergence criterion sc_accuracy_rho was not provided.
 * We used to stop in this case, and ask the user to provide reasonable
 * scf convergence criteria. However, this led some users to employ criteria
 * that led to extremely long run times, e.g., for simple relaxation.
 * We now preset a default value for sc_accuracy_rho if it is not set.
 * You may still wish to check if this setting is too tight or too loose for your needs.
 * Based on n_atoms and forces and force-correction status, FHI-aims chose sc_accuracy_rho =  0.100000E-05 .
  No accuracy limit for integral partition fn. given. Defaulting to  0.1000E-14.
  No threshold value for u(r) in integrations given. Defaulting to  0.1000E-05.
  No accuracy for occupation numbers given. Defaulting to  0.1000E-12.
  No threshold value for occupation numbers given. Defaulting to  0.0000E+00.
  No accuracy for fermi level given. Defaulting to  0.1000E-19.
  Maximum # of iterations to find E_F not set. Defaulting to  200.
  Preferred method for the eigenvalue solver ('KS_method') not specified in 'control.in'.
  Defaulting to serial version, LAPACK (via ELSI), since more k-points than CPUs available.
  Will not use alltoall communication since running on < 1024 CPUs.
  partition_type (choice of integration weights) for integrals was not specified.
  | Using a version of the partition function of Stratmann and coworkers ('stratmann_sparse').
  | At each grid point, the set of atoms used to build the partition table is smoothly restricted to
  | only those atoms whose free-atom density would be non-zero at that grid point.
  Partitioning for Hartree potential was not defined. Using partition_type for integrals.
  | Adjusted default value of keyword multip_moments_threshold to:       0.10000000E-11
  | This value may affect high angular momentum components of the Hartree potential in periodic systems.
  Threshold for auxiliary basis singularities not set.
  Default threshold for auxiliary basis singularities:  0.1000E-04
  * Periodic GW calculations will start ......
  * nk > 1 for all reciprocal lattice vectors, finite size correction switched on by default
  * - Head correction switched on, q->0 in direction:   0.577350  0.577350  0.577350
  * - Wing correction switched off
  * Setting default energy window for Kohn-Sham states to calculate QPE to [VBM - 20 eV, CBM + 10 eV].
  Eigen-decomposition algorithm is used to invert dielectric matrix in periodic GW.
  No q(lm)/r^(l+1) cutoff set for long-range Hartree potential.
  | Using default value of  0.100000E-09 .
  | Verify using the multipole_threshold keyword.
  Defaulting to new monopole extrapolation.
  Density update method: automatic selection selected.
  Using density matrix based charge density update.
  Using density matrix based charge density update.
  Using packed matrix style: index .
  Threshold of packed matrixes:  0.000000E+00
** WARNING:
 * This is an experimental version of the periodic GW implemenation.
 * We are still actively working on it to improve the efficiency and reliability.
 * Do not rely on any results you obtained from periodic GW calculation.
** END OF WARNING
  Defaulting to use full k-point grid (no symmetry reduction).
  Charge integration errors on the 3D integration grid will be compensated
  by explicit normalization and distribution of residual charges.
  Use the "compensate_multipole_errors" flag to change this behaviour.
  Default to 1D ("use_logsbt") integrations for auxiliary 2-center integrals.
  Default onset of logarithmic r-grid for SBT is -38.000000000000
  Default onset of logarithmic k-grid for SBT is -25.000000000000
  Default range of logarithmic r- and k-grid for SBT is  45.000000000000
  Default number of logarithmic r- and k-grid for SBT is   4096
  Set 'collect_eigenvectors' to be '.true.' for all serial calculations. This is mandatory.
  Set 'collect_eigenvectors' to be '.true.' for GW/RPA/MP2, SCREX/COHSEX cluster calculations
  Set 'collect_eigenvectors' to be '.true.' for qpe_calc (quasiparticle energy).
  Set 'collect_eigenvectors' to be '.true.' for KS_method lapack_fast and serial.
  Found potential conflicts with setting 'use_local_index' for this calculation. Will not set it.

  Consistency checks for the contents of geometry.in are next.


  Range separation radius for Ewald summation (hartree_convergence_parameter):      3.87766534 bohr.
  Number of empty states per atom not set in control.in .
  | Since you are using a method that relies on the unoccupied spectrum
  | (MP2,GW,RPA et al.), will use the full Hamiltonian size (see below)
  | as the max. possible number of states (occupied plus empty).

  Structure-dependent array size parameters: 
  | Number of distinct atom types in initial rho :        1
  | Maximum number of distinct radial functions  :        5
  | Maximum number of basis functions            :       18
  | Number of Kohn-Sham states (occupied + empty):       18
------------------------------------------------------------
  Setting Coulomb cut-width to  1.091868692359 * rcut.
  Setting Coulomb cutting radius rcut to  5.745250224976 A.

  Checking k-grid inconsistencies now:
  | k-point density for reciprocal lattice vector 1 is    1.49 nkpts / Angstrom^-1
  | k-point density for reciprocal lattice vector 2 is    1.49 nkpts / Angstrom^-1
  | k-point density for reciprocal lattice vector 3 is    1.49 nkpts / Angstrom^-1

  | Ratio of k-point densities for reciprocal lattice vectors 1 vs 2 is    1.00
  | Ratio of k-point densities for reciprocal lattice vectors 1 vs 3 is    1.00
  | Ratio of k-point densities for reciprocal lattice vectors 2 vs 3 is    1.00

  * The specified k_grid leads to a nearly homogenous k-grid density in non-vacuum directions,
  * and seems sensible.

  | Checks passed.

  Performing system and environment tests:
  | Environment variable OMP_NUM_THREADS correctly set to 1.
  | Checking for ScaLAPACK...
  | Testing pdtran()...
  | All pdtran() tests passed.

------------------------------------------------------------
          Preparing all fixed parts of the calculation.
------------------------------------------------------------
  Determining machine precision:
     2.2250738585072014E-308
  Setting up grids for atomic and cluster calculations.

  Creating wave function, potential, and density for free atoms.
  Runtime choices for atomic solver:
  | atomic solver xc        : PBE
  | compute density gradient: 1
  | compute kinetic density : F

  Species: Si

  List of occupied orbitals and eigenvalues:
    n    l              occ      energy [Ha]    energy [eV]
    1    0           2.0000       -65.767597     -1789.6274
    2    0           2.0000        -5.115610      -139.2028
    3    0           2.0000        -0.388877       -10.5819
    2    1           6.0000        -3.500197       -95.2452
    3    1           2.0000        -0.140803        -3.8315

  Spin-polarized or charged system:
  Charge density initialized according to selected moments and charges.

  Creating spin-polarized density from free atoms.

  Species: Si
  Charge:   0.000000
  Moment:   0.000000

  List of occupied orbitals and eigenvalues:
    n    l      energy [Ha]    energy [eV]    occupation
  Spin-up
    1    0       -65.767597     -1789.6274     1.00000000
    2    0        -5.115610      -139.2028     1.00000000
    3    0        -0.388877       -10.5819     1.00000000
    2    1        -3.500197       -95.2452     3.00000000
    3    1        -0.140803        -3.8315     1.00000000
  Spin-down
    1    0       -65.767597     -1789.6274     1.00000000
    2    0        -5.115610      -139.2028     1.00000000
    3    0        -0.388877       -10.5819     1.00000000
    2    1        -3.500197       -95.2452     3.00000000
    3    1        -0.140803        -3.8315     1.00000000


  Adding cutoff potential to free-atom effective potential.
  Creating fixed part of basis set: Ionic, confined, hydrogenic.
  Creating atomic-like basis functions for current effective potential.

  Species Si                  :

  List of atomic basis orbitals and eigenvalues:
    n    l      energy [Ha]    energy [eV]    outer radius [A]
    1    0       -65.767597     -1789.6274       0.789468
    2    0        -5.115610      -139.2028       2.815114
    3    0        -0.388877       -10.5819       4.534782
    2    1        -3.500197       -95.2452       3.259919
    3    1        -0.140803        -3.8315       4.590560

  Assembling full basis from fixed parts.
  | Species Si :   atomic orbital   1 s accepted.
  | Species Si :   atomic orbital   2 s accepted.
  | Species Si :   atomic orbital   3 s accepted.
  | Species Si :   atomic orbital   2 p accepted.
  | Species Si :   atomic orbital   3 p accepted.

  Basis size parameters after reduction:
  | Total number of radial functions:        5
  | Total number of basis functions :       18

  Per-task memory consumption for arrays in subroutine allocate_ext:
  |           1.723584MB.
  Testing on-site integration grid accuracy.
  |  Species  Function  <phi|h_atom|phi> (log., in eV)  <phi|h_atom|phi> (rad., in eV)
           1        1              -1789.6273740966              -1789.6266345813
           1        2               -139.2028173376               -139.2028132357
           1        3                -10.5827646566                -10.5840329934
           1        4                -95.2452114632                -95.2452114537
           1        5                 -3.8413965043                 -3.8571292824

  Preparing densities etc. for the partition functions (integrals / Hartree potential).

  Preparations completed.
  max(cpu_time)          :      0.104 s.
  Wall clock time (cpu1) :      0.108 s.
------------------------------------------------------------

  Initializing index lists of integration centers etc. from given atomic structure:
  Mapping all atomic coordinates to central unit cell.

  Initializing the k-points
  | Number of k-points                             :        27
  The eigenvectors in the calculations are COMPLEX.
  | K-points in task   0:         6
  | K-points in task   1:         7
  | K-points in task   2:         7
  | K-points in task   3:         7
  | Consuming         11 KiB for k_phase_exx.
  | Number of basis functions in the Hamiltonian integrals :       589
  | Number of basis functions in a single unit cell        :        18
  | Number of centers in hartree potential         :       732
  | Number of centers in hartree multipole         :       318
  | Number of centers in electron density summation:       198
  | Number of centers in basis integrals           :       228
  | Number of centers in integrals                 :       101
  | Number of centers in hamiltonian               :       198
  | Consuming         47 KiB for k_phase.
  | Number of super-cells (origin) [n_cells]                     :        2197
  | Number of super-cells (after PM_index) [n_cells]             :         112
  | Number of super-cells in hamiltonian [n_cells_in_hamiltonian]:         112
  | Size of matrix packed + index [n_hamiltonian_matrix_size] :        8371

------------------------------------------------------------
          Begin self-consistency loop: Initialization.

          Date     :  20250626, Time     :  212523.210
------------------------------------------------------------
  | Estimated reciprocal-space cutoff momentum G_max:         2.40777785 bohr^-1 .
  | Reciprocal lattice points for long-range Hartree potential:      58
  Partitioning the integration grid into batches with parallel hashing+maxmin method.
  | Number of batches:      149
  | Maximal batch size:     104
  | Minimal batch size:      49
  | Average batch size:      75.221
  | Standard deviation of batch sizes:      10.833

  Integration load balanced across     4 MPI tasks.
  Work distribution over tasks is as follows:
  Task     0 has       2850 integration points.
  Task     1 has       2791 integration points.
  Task     2 has       2791 integration points.
  Task     3 has       2776 integration points.
  Initializing partition tables, free-atom densities, potentials, etc. across the integration grid (initialize_grid_storage).
  | initialize_grid_storage: Actual outermost partition radius vs. multipole_radius_free
  | (-- VB: in principle, multipole_radius_free should be larger, hence this output)
  | Species        1: Confinement radius =              4.999999999999999 AA, multipole_radius_free =              5.000694715736543 AA.
  | Species        1: outer_partition_radius set to              5.000694715736543 AA .
  | The sparse table of interatomic distances needs        255.65 kbyte instead of       415.87 kbyte of memory.
  | Net number of integration points:    11208
  | of which are non-zero points    :     9628
  | Numerical average free-atom electrostatic potential    :    -13.22843826 eV
  Renormalizing the initial density to the exact electron count on the 3D integration grid.
  | Initial density: Formal number of electrons (from input files) :      28.0000000000
  | Integrated number of electrons on 3D grid     :      27.9998537362
  | Charge integration error                      :      -0.0001462638
  | Normalization factor for density and gradient :       1.0000052237
  Renormalizing the free-atom superposition density to the exact electron count on the 3D integration grid.
  | Formal number of electrons (from input files) :      28.0000000000
  | Integrated number of electrons on 3D grid     :      27.9998537362
  | Charge integration error                      :      -0.0001462638
  | Normalization factor for density and gradient :       1.0000052237
  Obtaining max. number of non-zero basis functions in each batch (get_n_compute_maxes).
  | Maximal number of non-zero basis functions:      179 in task     0
  | Maximal number of non-zero basis functions:      182 in task     1
  | Maximal number of non-zero basis functions:      180 in task     2
  | Maximal number of non-zero basis functions:      177 in task     3
  Initialize hartree_potential_storage
  Max. number of atoms included in rho_multipole:            2

  Evaluating partitioned Hartree potential by multipole expansion.
  | Original multipole sum: apparent total charge =  -0.533428E-14
  | Sum of charges compensated after spline to logarithmic grids =  -0.000000E+00
  | Analytical far-field extrapolation by fixed multipoles:
  | Hartree multipole sum: apparent total charge =  -0.000000E+00
  Summing up the Hartree potential.
  | Ewald reciprocal-space coefficients, myid =     0 : cpu      0.000 s, wall      0.000 s.
  | Ewald reciprocal-space coefficients, myid =     1 : cpu      0.000 s, wall      0.000 s.
  | Ewald reciprocal-space coefficients, myid =     2 : cpu      0.000 s, wall      0.000 s.
  | Ewald reciprocal-space coefficients, myid =     3 : cpu      0.000 s, wall      0.000 s.
  Time summed over all CPUs for potential: real work        0.013 s, elapsed        0.014 s
  | RMS charge density error from multipole expansion :   0.961247E-14
  | Average real-space part of the electrostatic potential :      0.00000000 eV

  Allocating        0.059 MB for KS_eigenvector_complex
  Integrating Hamiltonian matrix: batch-based integration.
  Time summed over all CPUs for integration: real work        0.106 s, elapsed        0.109 s
  Integrating overlap matrix.
  Time summed over all CPUs for integration: real work        0.040 s, elapsed        0.042 s

  Updating Kohn-Sham eigenvalues and eigenvectors using ELSI and the (modified) LAPACK eigensolver.
  Singularity check in k-point 4, task 0 (analysis for other k-points/tasks may follow below):
  Overlap matrix is not singular
  | Lowest and highest eigenvalues :  0.1749E+00,  0.3379E+01
  Finished singularity check of overlap matrix
  | Time :     0.001 s
  Starting LAPACK eigensolver
  Finished Cholesky decomposition
  | Time :     0.000 s
  Finished transformation to standard eigenproblem
  | Time :     0.000 s
  Finished solving standard eigenproblem
  | Time :     0.000 s
  Finished back-transformation of eigenvectors
  | Time :     0.000 s

  Obtaining occupation numbers and electronic chemical potential using ELSI.
  | Note that, for insulating systems, the printed 'chemical potential' value is not uniquely defined.
  | It can be anywhere in the energy gap, as long as it correctly separates occupied and unoccupied states.
  | In systems with a gap, the physically relevant chemical potential is the VBM or HOMO.

  | Chemical potential (Fermi level):    -4.62589918 eV
  Writing Kohn-Sham eigenvalues.

  Spin-up eigenvalues:
  K-point:       1 at    0.000000    0.000000    0.000000 (in units of recip. lattice)

  State    Occupation    Eigenvalue [Ha]    Eigenvalue [eV]
      1       1.00000         -65.789855        -1790.23305
      2       1.00000         -65.789855        -1790.23305
      3       1.00000          -5.142381         -139.93131
      4       1.00000          -5.142087         -139.92330
      5       1.00000          -3.526987          -95.97420
      6       1.00000          -3.526987          -95.97419
      7       1.00000          -3.526986          -95.97418
      8       1.00000          -3.526343          -95.95668
      9       1.00000          -3.526343          -95.95668
     10       1.00000          -3.526343          -95.95667
     11       1.00000          -0.660150          -17.96360
     12       1.00000          -0.204632           -5.56831
     13       1.00000          -0.204573           -5.56671
     14       1.00000          -0.204545           -5.56595
     15       0.00000          -0.094596           -2.57410
     16       0.00000          -0.092883           -2.52747
     17       0.00000          -0.092844           -2.52641
     18       0.00000          -0.092798           -2.52517

  Spin-down eigenvalues:
  K-point:       1 at    0.000000    0.000000    0.000000 (in units of recip. lattice)

  State    Occupation    Eigenvalue [Ha]    Eigenvalue [eV]
      1       1.00000         -65.789855        -1790.23305
      2       1.00000         -65.789855        -1790.23305
      3       1.00000          -5.142381         -139.93131
      4       1.00000          -5.142087         -139.92330
      5       1.00000          -3.526987          -95.97420
      6       1.00000          -3.526987          -95.97419
      7       1.00000          -3.526986          -95.97418
      8       1.00000          -3.526343          -95.95668
      9       1.00000          -3.526343          -95.95668
     10       1.00000          -3.526343          -95.95667
     11       1.00000          -0.660150          -17.96360
     12       1.00000          -0.204632           -5.56831
     13       1.00000          -0.204573           -5.56671
     14       1.00000          -0.204545           -5.56595
     15       0.00000          -0.094596           -2.57410
     16       0.00000          -0.092883           -2.52747
     17       0.00000          -0.092844           -2.52641
     18       0.00000          -0.092798           -2.52517


  Spin-up eigenvalues:
  K-point:       2 at    0.000000    0.000000    0.333333 (in units of recip. lattice)

  State    Occupation    Eigenvalue [Ha]    Eigenvalue [eV]
      1       1.00000         -65.789855        -1790.23305
      2       1.00000         -65.789855        -1790.23305
      3       1.00000          -5.142332         -139.92996
      4       1.00000          -5.142137         -139.92466
      5       1.00000          -3.527022          -95.97516
      6       1.00000          -3.527022          -95.97515
      7       1.00000          -3.526936          -95.97280
      8       1.00000          -3.526391          -95.95799
      9       1.00000          -3.526308          -95.95571
     10       1.00000          -3.526308          -95.95571
     11       1.00000          -0.609165          -16.57621
     12       1.00000          -0.410431          -11.16838
     13       1.00000          -0.250727           -6.82263
     14       1.00000          -0.250616           -6.81962
     15       0.00000          -0.119214           -3.24399
     16       0.00000          -0.015964           -0.43441
     17       0.00000          -0.015771           -0.42916
     18       0.00000           0.156306            4.25330

  Spin-down eigenvalues:
  K-point:       2 at    0.000000    0.000000    0.333333 (in units of recip. lattice)

  State    Occupation    Eigenvalue [Ha]    Eigenvalue [eV]
      1       1.00000         -65.789855        -1790.23305
      2       1.00000         -65.789855        -1790.23305
      3       1.00000          -5.142332         -139.92996
      4       1.00000          -5.142137         -139.92466
      5       1.00000          -3.527022          -95.97516
      6       1.00000          -3.527022          -95.97515
      7       1.00000          -3.526936          -95.97280
      8       1.00000          -3.526391          -95.95799
      9       1.00000          -3.526308          -95.95571
     10       1.00000          -3.526308          -95.95571
     11       1.00000          -0.609165          -16.57621
     12       1.00000          -0.410431          -11.16838
     13       1.00000          -0.250727           -6.82263
     14       1.00000          -0.250616           -6.81962
     15       0.00000          -0.119214           -3.24399
     16       0.00000          -0.015964           -0.43441
     17       0.00000          -0.015771           -0.42916
     18       0.00000           0.156306            4.25330


  Spin-up eigenvalues:
  K-point:       3 at    0.000000    0.000000    0.666667 (in units of recip. lattice)

  State    Occupation    Eigenvalue [Ha]    Eigenvalue [eV]
      1       1.00000         -65.789855        -1790.23305
      2       1.00000         -65.789855        -1790.23305
      3       1.00000          -5.142332         -139.92996
      4       1.00000          -5.142137         -139.92466
      5       1.00000          -3.527022          -95.97516
      6       1.00000          -3.527022          -95.97515
      7       1.00000          -3.526936          -95.97280
      8       1.00000          -3.526391          -95.95799
      9       1.00000          -3.526308          -95.95571
     10       1.00000          -3.526308          -95.95571
     11       1.00000          -0.609165          -16.57621
     12       1.00000          -0.410431          -11.16838
     13       1.00000          -0.250727           -6.82263
     14       1.00000          -0.250616           -6.81962
     15       0.00000          -0.119214           -3.24399
     16       0.00000          -0.015964           -0.43441
     17       0.00000          -0.015771           -0.42916
     18       0.00000           0.156306            4.25330

  Spin-down eigenvalues:
  K-point:       3 at    0.000000    0.000000    0.666667 (in units of recip. lattice)

  State    Occupation    Eigenvalue [Ha]    Eigenvalue [eV]
      1       1.00000         -65.789855        -1790.23305
      2       1.00000         -65.789855        -1790.23305
      3       1.00000          -5.142332         -139.92996
      4       1.00000          -5.142137         -139.92466
      5       1.00000          -3.527022          -95.97516
      6       1.00000          -3.527022          -95.97515
      7       1.00000          -3.526936          -95.97280
      8       1.00000          -3.526391          -95.95799
      9       1.00000          -3.526308          -95.95571
     10       1.00000          -3.526308          -95.95571
     11       1.00000          -0.609165          -16.57621
     12       1.00000          -0.410431          -11.16838
     13       1.00000          -0.250727           -6.82263
     14       1.00000          -0.250616           -6.81962
     15       0.00000          -0.119214           -3.24399
     16       0.00000          -0.015964           -0.43441
     17       0.00000          -0.015771           -0.42916
     18       0.00000           0.156306            4.25330


  Spin-up eigenvalues:
  K-point:       4 at    0.000000    0.333333    0.000000 (in units of recip. lattice)

  State    Occupation    Eigenvalue [Ha]    Eigenvalue [eV]
      1       1.00000         -65.789855        -1790.23305
      2       1.00000         -65.789855        -1790.23305
      3       1.00000          -5.142332         -139.92996
      4       1.00000          -5.142137         -139.92466
      5       1.00000          -3.527022          -95.97516
      6       1.00000          -3.527022          -95.97515
      7       1.00000          -3.526936          -95.97280
      8       1.00000          -3.526392          -95.95800
      9       1.00000          -3.526308          -95.95571
     10       1.00000          -3.526307          -95.95571
     11       1.00000          -0.609167          -16.57629
     12       1.00000          -0.410415          -11.16796
     13       1.00000          -0.250738           -6.82294
     14       1.00000          -0.250636           -6.82016
     15       0.00000          -0.119243           -3.24477
     16       0.00000          -0.015865           -0.43171
     17       0.00000          -0.015831           -0.43077
     18       0.00000           0.156309            4.25339

  Spin-down eigenvalues:
  K-point:       4 at    0.000000    0.333333    0.000000 (in units of recip. lattice)

  State    Occupation    Eigenvalue [Ha]    Eigenvalue [eV]
      1       1.00000         -65.789855        -1790.23305
      2       1.00000         -65.789855        -1790.23305
      3       1.00000          -5.142332         -139.92996
      4       1.00000          -5.142137         -139.92466
      5       1.00000          -3.527022          -95.97516
      6       1.00000          -3.527022          -95.97515
      7       1.00000          -3.526936          -95.97280
      8       1.00000          -3.526392          -95.95800
      9       1.00000          -3.526308          -95.95571
     10       1.00000          -3.526307          -95.95571
     11       1.00000          -0.609167          -16.57629
     12       1.00000          -0.410415          -11.16796
     13       1.00000          -0.250738           -6.82294
     14       1.00000          -0.250636           -6.82016
     15       0.00000          -0.119243           -3.24477
     16       0.00000          -0.015865           -0.43171
     17       0.00000          -0.015831           -0.43077
     18       0.00000           0.156309            4.25339


  Spin-up eigenvalues:
  K-point:       5 at    0.000000    0.333333    0.333333 (in units of recip. lattice)

  State    Occupation    Eigenvalue [Ha]    Eigenvalue [eV]
      1       1.00000         -65.789855        -1790.23305
      2       1.00000         -65.789855        -1790.23305
      3       1.00000          -5.142308         -139.92932
      4       1.00000          -5.142161         -139.92531
      5       1.00000          -3.527058          -95.97613
      6       1.00000          -3.527057          -95.97611
      7       1.00000          -3.526825          -95.96979
      8       1.00000          -3.526502          -95.96100
      9       1.00000          -3.526271          -95.95473
     10       1.00000          -3.526271          -95.95472
     11       1.00000          -0.588721          -16.01990
     12       1.00000          -0.401565          -10.92714
     13       1.00000          -0.304894           -8.29660
     14       1.00000          -0.304849           -8.29535
     15       0.00000          -0.135452           -3.68585
     16       0.00000          -0.030878           -0.84022
     17       0.00000           0.127132            3.45944
     18       0.00000           0.127161            3.46024

  Spin-down eigenvalues:
  K-point:       5 at    0.000000    0.333333    0.333333 (in units of recip. lattice)

  State    Occupation    Eigenvalue [Ha]    Eigenvalue [eV]
      1       1.00000         -65.789855        -1790.23305
      2       1.00000         -65.789855        -1790.23305
      3       1.00000          -5.142308         -139.92932
      4       1.00000          -5.142161         -139.92531
      5       1.00000          -3.527058          -95.97613
      6       1.00000          -3.527057          -95.97611
      7       1.00000          -3.526825          -95.96979
      8       1.00000          -3.526502          -95.96100
      9       1.00000          -3.526271          -95.95473
     10       1.00000          -3.526271          -95.95472
     11       1.00000          -0.588721          -16.01990
     12       1.00000          -0.401565          -10.92714
     13       1.00000          -0.304894           -8.29660
     14       1.00000          -0.304849           -8.29535
     15       0.00000          -0.135452           -3.68585
     16       0.00000          -0.030878           -0.84022
     17       0.00000           0.127132            3.45944
     18       0.00000           0.127161            3.46024


  Spin-up eigenvalues:
  K-point:       6 at    0.000000    0.333333    0.666667 (in units of recip. lattice)

  State    Occupation    Eigenvalue [Ha]    Eigenvalue [eV]
      1       1.00000         -65.789855        -1790.23305
      2       1.00000         -65.789855        -1790.23305
      3       1.00000          -5.142271         -139.92832
      4       1.00000          -5.142198         -139.92632
      5       1.00000          -3.527082          -95.97678
      6       1.00000          -3.527056          -95.97607
      7       1.00000          -3.526773          -95.96838
      8       1.00000          -3.526555          -95.96244
      9       1.00000          -3.526273          -95.95478
     10       1.00000          -3.526244          -95.95397
     11       1.00000          -0.540513          -14.70810
     12       1.00000          -0.467354          -12.71736
     13       1.00000          -0.373586          -10.16580
     14       1.00000          -0.293897           -7.99734
     15       0.00000          -0.082444           -2.24342
     16       0.00000           0.083672            2.27683
     17       0.00000           0.098904            2.69132
     18       0.00000           0.149667            4.07265

  Spin-down eigenvalues:
  K-point:       6 at    0.000000    0.333333    0.666667 (in units of recip. lattice)

  State    Occupation    Eigenvalue [Ha]    Eigenvalue [eV]
      1       1.00000         -65.789855        -1790.23305
      2       1.00000         -65.789855        -1790.23305
      3       1.00000          -5.142271         -139.92832
      4       1.00000          -5.142198         -139.92632
      5       1.00000          -3.527082          -95.97678
      6       1.00000          -3.527056          -95.97607
      7       1.00000          -3.526773          -95.96838
      8       1.00000          -3.526555          -95.96244
      9       1.00000          -3.526273          -95.95478
     10       1.00000          -3.526244          -95.95397
     11       1.00000          -0.540513          -14.70810
     12       1.00000          -0.467354          -12.71736
     13       1.00000          -0.373586          -10.16580
     14       1.00000          -0.293897           -7.99734
     15       0.00000          -0.082444           -2.24342
     16       0.00000           0.083672            2.27683
     17       0.00000           0.098904            2.69132
     18       0.00000           0.149667            4.07265


  Spin-up eigenvalues:
  K-point:       7 at    0.000000    0.666667    0.000000 (in units of recip. lattice)

  State    Occupation    Eigenvalue [Ha]    Eigenvalue [eV]
      1       1.00000         -65.789855        -1790.23305
      2       1.00000         -65.789855        -1790.23305
      3       1.00000          -5.142332         -139.92996
      4       1.00000          -5.142137         -139.92466
      5       1.00000          -3.527022          -95.97516
      6       1.00000          -3.527022          -95.97515
      7       1.00000          -3.526936          -95.97280
      8       1.00000          -3.526392          -95.95800
      9       1.00000          -3.526308          -95.95571
     10       1.00000          -3.526307          -95.95571
     11       1.00000          -0.609167          -16.57629
     12       1.00000          -0.410415          -11.16796
     13       1.00000          -0.250738           -6.82294
     14       1.00000          -0.250636           -6.82016
     15       0.00000          -0.119243           -3.24477
     16       0.00000          -0.015865           -0.43171
     17       0.00000          -0.015831           -0.43077
     18       0.00000           0.156309            4.25339

  Spin-down eigenvalues:
  K-point:       7 at    0.000000    0.666667    0.000000 (in units of recip. lattice)

  State    Occupation    Eigenvalue [Ha]    Eigenvalue [eV]
      1       1.00000         -65.789855        -1790.23305
      2       1.00000         -65.789855        -1790.23305
      3       1.00000          -5.142332         -139.92996
      4       1.00000          -5.142137         -139.92466
      5       1.00000          -3.527022          -95.97516
      6       1.00000          -3.527022          -95.97515
      7       1.00000          -3.526936          -95.97280
      8       1.00000          -3.526392          -95.95800
      9       1.00000          -3.526308          -95.95571
     10       1.00000          -3.526307          -95.95571
     11       1.00000          -0.609167          -16.57629
     12       1.00000          -0.410415          -11.16796
     13       1.00000          -0.250738           -6.82294
     14       1.00000          -0.250636           -6.82016
     15       0.00000          -0.119243           -3.24477
     16       0.00000          -0.015865           -0.43171
     17       0.00000          -0.015831           -0.43077
     18       0.00000           0.156309            4.25339


  Spin-up eigenvalues:
  K-point:       8 at    0.000000    0.666667    0.333333 (in units of recip. lattice)

  State    Occupation    Eigenvalue [Ha]    Eigenvalue [eV]
      1       1.00000         -65.789855        -1790.23305
      2       1.00000         -65.789855        -1790.23305
      3       1.00000          -5.142271         -139.92832
      4       1.00000          -5.142198         -139.92632
      5       1.00000          -3.527082          -95.97678
      6       1.00000          -3.527056          -95.97607
      7       1.00000          -3.526773          -95.96838
      8       1.00000          -3.526555          -95.96244
      9       1.00000          -3.526273          -95.95478
     10       1.00000          -3.526244          -95.95397
     11       1.00000          -0.540513          -14.70810
     12       1.00000          -0.467354          -12.71736
     13       1.00000          -0.373586          -10.16580
     14       1.00000          -0.293897           -7.99734
     15       0.00000          -0.082444           -2.24342
     16       0.00000           0.083672            2.27683
     17       0.00000           0.098904            2.69132
     18       0.00000           0.149667            4.07265

  Spin-down eigenvalues:
  K-point:       8 at    0.000000    0.666667    0.333333 (in units of recip. lattice)

  State    Occupation    Eigenvalue [Ha]    Eigenvalue [eV]
      1       1.00000         -65.789855        -1790.23305
      2       1.00000         -65.789855        -1790.23305
      3       1.00000          -5.142271         -139.92832
      4       1.00000          -5.142198         -139.92632
      5       1.00000          -3.527082          -95.97678
      6       1.00000          -3.527056          -95.97607
      7       1.00000          -3.526773          -95.96838
      8       1.00000          -3.526555          -95.96244
      9       1.00000          -3.526273          -95.95478
     10       1.00000          -3.526244          -95.95397
     11       1.00000          -0.540513          -14.70810
     12       1.00000          -0.467354          -12.71736
     13       1.00000          -0.373586          -10.16580
     14       1.00000          -0.293897           -7.99734
     15       0.00000          -0.082444           -2.24342
     16       0.00000           0.083672            2.27683
     17       0.00000           0.098904            2.69132
     18       0.00000           0.149667            4.07265


  Spin-up eigenvalues:
  K-point:       9 at    0.000000    0.666667    0.666667 (in units of recip. lattice)

  State    Occupation    Eigenvalue [Ha]    Eigenvalue [eV]
      1       1.00000         -65.789855        -1790.23305
      2       1.00000         -65.789855        -1790.23305
      3       1.00000          -5.142308         -139.92932
      4       1.00000          -5.142161         -139.92531
      5       1.00000          -3.527058          -95.97613
      6       1.00000          -3.527057          -95.97611
      7       1.00000          -3.526825          -95.96979
      8       1.00000          -3.526502          -95.96100
      9       1.00000          -3.526271          -95.95473
     10       1.00000          -3.526271          -95.95472
     11       1.00000          -0.588721          -16.01990
     12       1.00000          -0.401565          -10.92714
     13       1.00000          -0.304894           -8.29660
     14       1.00000          -0.304849           -8.29535
     15       0.00000          -0.135452           -3.68585
     16       0.00000          -0.030878           -0.84022
     17       0.00000           0.127132            3.45944
     18       0.00000           0.127161            3.46024

  Spin-down eigenvalues:
  K-point:       9 at    0.000000    0.666667    0.666667 (in units of recip. lattice)

  State    Occupation    Eigenvalue [Ha]    Eigenvalue [eV]
      1       1.00000         -65.789855        -1790.23305
      2       1.00000         -65.789855        -1790.23305
      3       1.00000          -5.142308         -139.92932
      4       1.00000          -5.142161         -139.92531
      5       1.00000          -3.527058          -95.97613
      6       1.00000          -3.527057          -95.97611
      7       1.00000          -3.526825          -95.96979
      8       1.00000          -3.526502          -95.96100
      9       1.00000          -3.526271          -95.95473
     10       1.00000          -3.526271          -95.95472
     11       1.00000          -0.588721          -16.01990
     12       1.00000          -0.401565          -10.92714
     13       1.00000          -0.304894           -8.29660
     14       1.00000          -0.304849           -8.29535
     15       0.00000          -0.135452           -3.68585
     16       0.00000          -0.030878           -0.84022
     17       0.00000           0.127132            3.45944
     18       0.00000           0.127161            3.46024


  Spin-up eigenvalues:
  K-point:      10 at    0.333333    0.000000    0.000000 (in units of recip. lattice)

  State    Occupation    Eigenvalue [Ha]    Eigenvalue [eV]
      1       1.00000         -65.789855        -1790.23305
      2       1.00000         -65.789855        -1790.23305
      3       1.00000          -5.142332         -139.92996
      4       1.00000          -5.142137         -139.92466
      5       1.00000          -3.527022          -95.97516
      6       1.00000          -3.527022          -95.97514
      7       1.00000          -3.526936          -95.97281
      8       1.00000          -3.526392          -95.95800
      9       1.00000          -3.526308          -95.95571
     10       1.00000          -3.526307          -95.95570
     11       1.00000          -0.609165          -16.57623
     12       1.00000          -0.410407          -11.16773
     13       1.00000          -0.250676           -6.82124
     14       1.00000          -0.250673           -6.82116
     15       0.00000          -0.119253           -3.24503
     16       0.00000          -0.015831           -0.43078
     17       0.00000          -0.015824           -0.43059
     18       0.00000           0.156283            4.25268

  Spin-down eigenvalues:
  K-point:      10 at    0.333333    0.000000    0.000000 (in units of recip. lattice)

  State    Occupation    Eigenvalue [Ha]    Eigenvalue [eV]
      1       1.00000         -65.789855        -1790.23305
      2       1.00000         -65.789855        -1790.23305
      3       1.00000          -5.142332         -139.92996
      4       1.00000          -5.142137         -139.92466
      5       1.00000          -3.527022          -95.97516
      6       1.00000          -3.527022          -95.97514
      7       1.00000          -3.526936          -95.97281
      8       1.00000          -3.526392          -95.95800
      9       1.00000          -3.526308          -95.95571
     10       1.00000          -3.526307          -95.95570
     11       1.00000          -0.609165          -16.57623
     12       1.00000          -0.410407          -11.16773
     13       1.00000          -0.250676           -6.82124
     14       1.00000          -0.250673           -6.82116
     15       0.00000          -0.119253           -3.24503
     16       0.00000          -0.015831           -0.43078
     17       0.00000          -0.015824           -0.43059
     18       0.00000           0.156283            4.25268


  Spin-up eigenvalues:
  K-point:      11 at    0.333333    0.000000    0.333333 (in units of recip. lattice)

  State    Occupation    Eigenvalue [Ha]    Eigenvalue [eV]
      1       1.00000         -65.789855        -1790.23305
      2       1.00000         -65.789855        -1790.23305
      3       1.00000          -5.142308         -139.92932
      4       1.00000          -5.142161         -139.92531
      5       1.00000          -3.527058          -95.97612
      6       1.00000          -3.527058          -95.97612
      7       1.00000          -3.526825          -95.96978
      8       1.00000          -3.526502          -95.96100
      9       1.00000          -3.526271          -95.95473
     10       1.00000          -3.526271          -95.95472
     11       1.00000          -0.588720          -16.01988
     12       1.00000          -0.401549          -10.92670
     13       1.00000          -0.304885           -8.29635
     14       1.00000          -0.304877           -8.29612
     15       0.00000          -0.135449           -3.68576
     16       0.00000          -0.030867           -0.83993
     17       0.00000           0.127154            3.46005
     18       0.00000           0.127173            3.46054

  Spin-down eigenvalues:
  K-point:      11 at    0.333333    0.000000    0.333333 (in units of recip. lattice)

  State    Occupation    Eigenvalue [Ha]    Eigenvalue [eV]
      1       1.00000         -65.789855        -1790.23305
      2       1.00000         -65.789855        -1790.23305
      3       1.00000          -5.142308         -139.92932
      4       1.00000          -5.142161         -139.92531
      5       1.00000          -3.527058          -95.97612
      6       1.00000          -3.527058          -95.97612
      7       1.00000          -3.526825          -95.96978
      8       1.00000          -3.526502          -95.96100
      9       1.00000          -3.526271          -95.95473
     10       1.00000          -3.526271          -95.95472
     11       1.00000          -0.588720          -16.01988
     12       1.00000          -0.401549          -10.92670
     13       1.00000          -0.304885           -8.29635
     14       1.00000          -0.304877           -8.29612
     15       0.00000          -0.135449           -3.68576
     16       0.00000          -0.030867           -0.83993
     17       0.00000           0.127154            3.46005
     18       0.00000           0.127173            3.46054


  Spin-up eigenvalues:
  K-point:      12 at    0.333333    0.000000    0.666667 (in units of recip. lattice)

  State    Occupation    Eigenvalue [Ha]    Eigenvalue [eV]
      1       1.00000         -65.789855        -1790.23305
      2       1.00000         -65.789855        -1790.23305
      3       1.00000          -5.142271         -139.92832
      4       1.00000          -5.142198         -139.92632
      5       1.00000          -3.527082          -95.97678
      6       1.00000          -3.527056          -95.97607
      7       1.00000          -3.526773          -95.96838
      8       1.00000          -3.526555          -95.96244
      9       1.00000          -3.526273          -95.95478
     10       1.00000          -3.526244          -95.95397
     11       1.00000          -0.540507          -14.70795
     12       1.00000          -0.467351          -12.71726
     13       1.00000          -0.373573          -10.16544
     14       1.00000          -0.293921           -7.99799
     15       0.00000          -0.082452           -2.24365
     16       0.00000           0.083641            2.27600
     17       0.00000           0.098897            2.69113
     18       0.00000           0.149686            4.07316

  Spin-down eigenvalues:
  K-point:      12 at    0.333333    0.000000    0.666667 (in units of recip. lattice)

  State    Occupation    Eigenvalue [Ha]    Eigenvalue [eV]
      1       1.00000         -65.789855        -1790.23305
      2       1.00000         -65.789855        -1790.23305
      3       1.00000          -5.142271         -139.92832
      4       1.00000          -5.142198         -139.92632
      5       1.00000          -3.527082          -95.97678
      6       1.00000          -3.527056          -95.97607
      7       1.00000          -3.526773          -95.96838
      8       1.00000          -3.526555          -95.96244
      9       1.00000          -3.526273          -95.95478
     10       1.00000          -3.526244          -95.95397
     11       1.00000          -0.540507          -14.70795
     12       1.00000          -0.467351          -12.71726
     13       1.00000          -0.373573          -10.16544
     14       1.00000          -0.293921           -7.99799
     15       0.00000          -0.082452           -2.24365
     16       0.00000           0.083641            2.27600
     17       0.00000           0.098897            2.69113
     18       0.00000           0.149686            4.07316


  Spin-up eigenvalues:
  K-point:      13 at    0.333333    0.333333    0.000000 (in units of recip. lattice)

  State    Occupation    Eigenvalue [Ha]    Eigenvalue [eV]
      1       1.00000         -65.789855        -1790.23305
      2       1.00000         -65.789855        -1790.23305
      3       1.00000          -5.142308         -139.92932
      4       1.00000          -5.142161         -139.92531
      5       1.00000          -3.527058          -95.97612
      6       1.00000          -3.527058          -95.97612
      7       1.00000          -3.526825          -95.96978
      8       1.00000          -3.526502          -95.96100
      9       1.00000          -3.526271          -95.95473
     10       1.00000          -3.526271          -95.95472
     11       1.00000          -0.588720          -16.01988
     12       1.00000          -0.401549          -10.92670
     13       1.00000          -0.304885           -8.29635
     14       1.00000          -0.304877           -8.29612
     15       0.00000          -0.135449           -3.68576
     16       0.00000          -0.030867           -0.83993
     17       0.00000           0.127154            3.46005
     18       0.00000           0.127173            3.46054

  Spin-down eigenvalues:
  K-point:      13 at    0.333333    0.333333    0.000000 (in units of recip. lattice)

  State    Occupation    Eigenvalue [Ha]    Eigenvalue [eV]
      1       1.00000         -65.789855        -1790.23305
      2       1.00000         -65.789855        -1790.23305
      3       1.00000          -5.142308         -139.92932
      4       1.00000          -5.142161         -139.92531
      5       1.00000          -3.527058          -95.97612
      6       1.00000          -3.527058          -95.97612
      7       1.00000          -3.526825          -95.96978
      8       1.00000          -3.526502          -95.96100
      9       1.00000          -3.526271          -95.95473
     10       1.00000          -3.526271          -95.95472
     11       1.00000          -0.588720          -16.01988
     12       1.00000          -0.401549          -10.92670
     13       1.00000          -0.304885           -8.29635
     14       1.00000          -0.304877           -8.29612
     15       0.00000          -0.135449           -3.68576
     16       0.00000          -0.030867           -0.83993
     17       0.00000           0.127154            3.46005
     18       0.00000           0.127173            3.46054


  Spin-up eigenvalues:
  K-point:      14 at    0.333333    0.333333    0.333333 (in units of recip. lattice)

  State    Occupation    Eigenvalue [Ha]    Eigenvalue [eV]
      1       1.00000         -65.789855        -1790.23305
      2       1.00000         -65.789855        -1790.23305
      3       1.00000          -5.142332         -139.92996
      4       1.00000          -5.142137         -139.92466
      5       1.00000          -3.527022          -95.97516
      6       1.00000          -3.527022          -95.97514
      7       1.00000          -3.526936          -95.97281
      8       1.00000          -3.526392          -95.95800
      9       1.00000          -3.526308          -95.95571
     10       1.00000          -3.526307          -95.95570
     11       1.00000          -0.609165          -16.57623
     12       1.00000          -0.410407          -11.16773
     13       1.00000          -0.250676           -6.82124
     14       1.00000          -0.250673           -6.82116
     15       0.00000          -0.119253           -3.24503
     16       0.00000          -0.015831           -0.43078
     17       0.00000          -0.015824           -0.43059
     18       0.00000           0.156283            4.25268

  Spin-down eigenvalues:
  K-point:      14 at    0.333333    0.333333    0.333333 (in units of recip. lattice)

  State    Occupation    Eigenvalue [Ha]    Eigenvalue [eV]
      1       1.00000         -65.789855        -1790.23305
      2       1.00000         -65.789855        -1790.23305
      3       1.00000          -5.142332         -139.92996
      4       1.00000          -5.142137         -139.92466
      5       1.00000          -3.527022          -95.97516
      6       1.00000          -3.527022          -95.97514
      7       1.00000          -3.526936          -95.97281
      8       1.00000          -3.526392          -95.95800
      9       1.00000          -3.526308          -95.95571
     10       1.00000          -3.526307          -95.95570
     11       1.00000          -0.609165          -16.57623
     12       1.00000          -0.410407          -11.16773
     13       1.00000          -0.250676           -6.82124
     14       1.00000          -0.250673           -6.82116
     15       0.00000          -0.119253           -3.24503
     16       0.00000          -0.015831           -0.43078
     17       0.00000          -0.015824           -0.43059
     18       0.00000           0.156283            4.25268


  Spin-up eigenvalues:
  K-point:      15 at    0.333333    0.333333    0.666667 (in units of recip. lattice)

  State    Occupation    Eigenvalue [Ha]    Eigenvalue [eV]
      1       1.00000         -65.789855        -1790.23305
      2       1.00000         -65.789855        -1790.23305
      3       1.00000          -5.142271         -139.92832
      4       1.00000          -5.142198         -139.92632
      5       1.00000          -3.527082          -95.97678
      6       1.00000          -3.527056          -95.97607
      7       1.00000          -3.526773          -95.96838
      8       1.00000          -3.526555          -95.96244
      9       1.00000          -3.526273          -95.95478
     10       1.00000          -3.526244          -95.95397
     11       1.00000          -0.540507          -14.70795
     12       1.00000          -0.467351          -12.71726
     13       1.00000          -0.373573          -10.16544
     14       1.00000          -0.293921           -7.99799
     15       0.00000          -0.082452           -2.24365
     16       0.00000           0.083641            2.27600
     17       0.00000           0.098897            2.69113
     18       0.00000           0.149686            4.07316

  Spin-down eigenvalues:
  K-point:      15 at    0.333333    0.333333    0.666667 (in units of recip. lattice)

  State    Occupation    Eigenvalue [Ha]    Eigenvalue [eV]
      1       1.00000         -65.789855        -1790.23305
      2       1.00000         -65.789855        -1790.23305
      3       1.00000          -5.142271         -139.92832
      4       1.00000          -5.142198         -139.92632
      5       1.00000          -3.527082          -95.97678
      6       1.00000          -3.527056          -95.97607
      7       1.00000          -3.526773          -95.96838
      8       1.00000          -3.526555          -95.96244
      9       1.00000          -3.526273          -95.95478
     10       1.00000          -3.526244          -95.95397
     11       1.00000          -0.540507          -14.70795
     12       1.00000          -0.467351          -12.71726
     13       1.00000          -0.373573          -10.16544
     14       1.00000          -0.293921           -7.99799
     15       0.00000          -0.082452           -2.24365
     16       0.00000           0.083641            2.27600
     17       0.00000           0.098897            2.69113
     18       0.00000           0.149686            4.07316


  Spin-up eigenvalues:
  K-point:      16 at    0.333333    0.666667    0.000000 (in units of recip. lattice)

  State    Occupation    Eigenvalue [Ha]    Eigenvalue [eV]
      1       1.00000         -65.789855        -1790.23305
      2       1.00000         -65.789855        -1790.23305
      3       1.00000          -5.142271         -139.92832
      4       1.00000          -5.142198         -139.92632
      5       1.00000          -3.527082          -95.97678
      6       1.00000          -3.527055          -95.97606
      7       1.00000          -3.526773          -95.96839
      8       1.00000          -3.526555          -95.96245
      9       1.00000          -3.526273          -95.95478
     10       1.00000          -3.526244          -95.95398
     11       1.00000          -0.540513          -14.70811
     12       1.00000          -0.467352          -12.71730
     13       1.00000          -0.373550          -10.16481
     14       1.00000          -0.293927           -7.99815
     15       0.00000          -0.082475           -2.24425
     16       0.00000           0.083650            2.27624
     17       0.00000           0.098911            2.69150
     18       0.00000           0.149676            4.07289

  Spin-down eigenvalues:
  K-point:      16 at    0.333333    0.666667    0.000000 (in units of recip. lattice)

  State    Occupation    Eigenvalue [Ha]    Eigenvalue [eV]
      1       1.00000         -65.789855        -1790.23305
      2       1.00000         -65.789855        -1790.23305
      3       1.00000          -5.142271         -139.92832
      4       1.00000          -5.142198         -139.92632
      5       1.00000          -3.527082          -95.97678
      6       1.00000          -3.527055          -95.97606
      7       1.00000          -3.526773          -95.96839
      8       1.00000          -3.526555          -95.96245
      9       1.00000          -3.526273          -95.95478
     10       1.00000          -3.526244          -95.95398
     11       1.00000          -0.540513          -14.70811
     12       1.00000          -0.467352          -12.71730
     13       1.00000          -0.373550          -10.16481
     14       1.00000          -0.293927           -7.99815
     15       0.00000          -0.082475           -2.24425
     16       0.00000           0.083650            2.27624
     17       0.00000           0.098911            2.69150
     18       0.00000           0.149676            4.07289


  Spin-up eigenvalues:
  K-point:      17 at    0.333333    0.666667    0.333333 (in units of recip. lattice)

  State    Occupation    Eigenvalue [Ha]    Eigenvalue [eV]
      1       1.00000         -65.789855        -1790.23305
      2       1.00000         -65.789855        -1790.23305
      3       1.00000          -5.142271         -139.92832
      4       1.00000          -5.142198         -139.92632
      5       1.00000          -3.527082          -95.97678
      6       1.00000          -3.527055          -95.97606
      7       1.00000          -3.526773          -95.96839
      8       1.00000          -3.526555          -95.96245
      9       1.00000          -3.526273          -95.95478
     10       1.00000          -3.526244          -95.95398
     11       1.00000          -0.540513          -14.70811
     12       1.00000          -0.467352          -12.71730
     13       1.00000          -0.373550          -10.16481
     14       1.00000          -0.293927           -7.99815
     15       0.00000          -0.082475           -2.24425
     16       0.00000           0.083650            2.27624
     17       0.00000           0.098911            2.69150
     18       0.00000           0.149676            4.07289

  Spin-down eigenvalues:
  K-point:      17 at    0.333333    0.666667    0.333333 (in units of recip. lattice)

  State    Occupation    Eigenvalue [Ha]    Eigenvalue [eV]
      1       1.00000         -65.789855        -1790.23305
      2       1.00000         -65.789855        -1790.23305
      3       1.00000          -5.142271         -139.92832
      4       1.00000          -5.142198         -139.92632
      5       1.00000          -3.527082          -95.97678
      6       1.00000          -3.527055          -95.97606
      7       1.00000          -3.526773          -95.96839
      8       1.00000          -3.526555          -95.96245
      9       1.00000          -3.526273          -95.95478
     10       1.00000          -3.526244          -95.95398
     11       1.00000          -0.540513          -14.70811
     12       1.00000          -0.467352          -12.71730
     13       1.00000          -0.373550          -10.16481
     14       1.00000          -0.293927           -7.99815
     15       0.00000          -0.082475           -2.24425
     16       0.00000           0.083650            2.27624
     17       0.00000           0.098911            2.69150
     18       0.00000           0.149676            4.07289


  Spin-up eigenvalues:
  K-point:      18 at    0.333333    0.666667    0.666667 (in units of recip. lattice)

  State    Occupation    Eigenvalue [Ha]    Eigenvalue [eV]
      1       1.00000         -65.789855        -1790.23305
      2       1.00000         -65.789855        -1790.23305
      3       1.00000          -5.142271         -139.92832
      4       1.00000          -5.142198         -139.92632
      5       1.00000          -3.527082          -95.97678
      6       1.00000          -3.527055          -95.97606
      7       1.00000          -3.526773          -95.96839
      8       1.00000          -3.526555          -95.96245
      9       1.00000          -3.526273          -95.95477
     10       1.00000          -3.526244          -95.95398
     11       1.00000          -0.540511          -14.70804
     12       1.00000          -0.467360          -12.71752
     13       1.00000          -0.373547          -10.16473
     14       1.00000          -0.293919           -7.99796
     15       0.00000          -0.082469           -2.24409
     16       0.00000           0.083646            2.27611
     17       0.00000           0.098910            2.69147
     18       0.00000           0.149690            4.07327

  Spin-down eigenvalues:
  K-point:      18 at    0.333333    0.666667    0.666667 (in units of recip. lattice)

  State    Occupation    Eigenvalue [Ha]    Eigenvalue [eV]
      1       1.00000         -65.789855        -1790.23305
      2       1.00000         -65.789855        -1790.23305
      3       1.00000          -5.142271         -139.92832
      4       1.00000          -5.142198         -139.92632
      5       1.00000          -3.527082          -95.97678
      6       1.00000          -3.527055          -95.97606
      7       1.00000          -3.526773          -95.96839
      8       1.00000          -3.526555          -95.96245
      9       1.00000          -3.526273          -95.95477
     10       1.00000          -3.526244          -95.95398
     11       1.00000          -0.540511          -14.70804
     12       1.00000          -0.467360          -12.71752
     13       1.00000          -0.373547          -10.16473
     14       1.00000          -0.293919           -7.99796
     15       0.00000          -0.082469           -2.24409
     16       0.00000           0.083646            2.27611
     17       0.00000           0.098910            2.69147
     18       0.00000           0.149690            4.07327


  Spin-up eigenvalues:
  K-point:      19 at    0.666667    0.000000    0.000000 (in units of recip. lattice)

[...]
  K_point   23 :           0.6667          0.3333          0.3333
---------------------------------------------------------------------------------------------------
      11    1.0000      -14.7193      -17.9394      -12.6617        4.9651      -15.0319
      12    1.0000      -12.7259      -16.8367      -12.5909        4.2374      -12.7344
      13    1.0000      -10.1359      -13.2851      -10.5896        3.0451       -9.7863
      14    1.0000       -8.0058      -14.0489      -12.1473        2.6778       -7.2296
      15    0.0000       -2.2485       -7.9258      -12.9470       -3.2351       -0.4624
      16    0.0000        2.2470       -8.2064      -14.2591       -4.2112        4.0884
      17    0.0000        2.6607       -7.6141      -14.0861       -4.3434        4.7893
      18    0.0000        4.0452       -7.8367      -14.5664       -4.6411        6.1339
------------------------------------------------------------------------------------------------
                                   Spin Down
  K_point   23 :           0.6667          0.3333          0.3333
---------------------------------------------------------------------------------------------------
      11    1.0000      -14.7193      -17.9394      -12.6617        4.9651      -15.0319
      12    1.0000      -12.7259      -16.8367      -12.5909        4.2374      -12.7344
      13    1.0000      -10.1359      -13.2851      -10.5896        3.0451       -9.7863
      14    1.0000       -8.0058      -14.0489      -12.1473        2.6778       -7.2296
      15    0.0000       -2.2485       -7.9258      -12.9470       -3.2351       -0.4624
      16    0.0000        2.2470       -8.2064      -14.2591       -4.2112        4.0884
      17    0.0000        2.6607       -7.6141      -14.0861       -4.3434        4.7893
      18    0.0000        4.0452       -7.8367      -14.5664       -4.6411        6.1339
---------------------------------------------------------------------------------------------------

                                   Spin Up
  K_point   24 :           0.6667          0.3333          0.6667
---------------------------------------------------------------------------------------------------
      11    1.0000      -14.7193      -17.9393      -12.6617        4.9650      -15.0319
      12    1.0000      -12.7257      -16.8375      -12.5912        4.2376      -12.7344
      13    1.0000      -10.1361      -13.2840      -10.5893        3.0447       -9.7860
      14    1.0000       -8.0060      -14.0492      -12.1474        2.6779       -7.2298
      15    0.0000       -2.2487       -7.9256      -12.9468       -3.2349       -0.4624
      16    0.0000        2.2471       -8.2061      -14.2587       -4.2112        4.0886
      17    0.0000        2.6608       -7.6140      -14.0860       -4.3434        4.7895
      18    0.0000        4.0448       -7.8367      -14.5664       -4.6409        6.1335
------------------------------------------------------------------------------------------------
                                   Spin Down
  K_point   24 :           0.6667          0.3333          0.6667
---------------------------------------------------------------------------------------------------
      11    1.0000      -14.7193      -17.9393      -12.6617        4.9650      -15.0319
      12    1.0000      -12.7257      -16.8375      -12.5912        4.2376      -12.7344
      13    1.0000      -10.1361      -13.2840      -10.5893        3.0447       -9.7860
      14    1.0000       -8.0060      -14.0492      -12.1474        2.6779       -7.2298
      15    0.0000       -2.2487       -7.9256      -12.9468       -3.2349       -0.4624
      16    0.0000        2.2471       -8.2061      -14.2587       -4.2112        4.0886
      17    0.0000        2.6608       -7.6140      -14.0860       -4.3434        4.7895
      18    0.0000        4.0448       -7.8367      -14.5664       -4.6409        6.1335
---------------------------------------------------------------------------------------------------

                                   Spin Up
  K_point   25 :           0.6667          0.6667          0.0000
---------------------------------------------------------------------------------------------------
      11    1.0000      -16.0203      -18.1042      -12.1317        5.4494      -16.5433
      12    1.0000      -10.9415      -16.1407      -13.0958        3.4371      -10.5492
      13    1.0000       -8.3024      -14.0829      -11.9312        2.8599       -7.5943
      14    1.0000       -8.3022      -14.0816      -11.9307        2.8594       -7.5937
      15    0.0000       -3.6698       -7.5395      -11.9658       -2.5344       -1.7779
      16    0.0000       -0.8558       -8.3843      -13.8867       -3.8703        0.7762
      17    0.0000        3.4287       -7.7926      -14.3799       -4.4331        5.5829
      18    0.0000        3.4292       -7.7926      -14.3799       -4.4330        5.5835
------------------------------------------------------------------------------------------------
                                   Spin Down
  K_point   25 :           0.6667          0.6667          0.0000
---------------------------------------------------------------------------------------------------
      11    1.0000      -16.0203      -18.1042      -12.1317        5.4494      -16.5433
      12    1.0000      -10.9415      -16.1407      -13.0958        3.4371      -10.5492
      13    1.0000       -8.3024      -14.0829      -11.9312        2.8599       -7.5943
      14    1.0000       -8.3022      -14.0816      -11.9307        2.8594       -7.5937
      15    0.0000       -3.6698       -7.5395      -11.9658       -2.5344       -1.7779
      16    0.0000       -0.8558       -8.3843      -13.8867       -3.8703        0.7762
      17    0.0000        3.4287       -7.7926      -14.3799       -4.4331        5.5829
      18    0.0000        3.4292       -7.7926      -14.3799       -4.4330        5.5835
---------------------------------------------------------------------------------------------------

                                   Spin Up
  K_point   26 :           0.6667          0.6667          0.3333
---------------------------------------------------------------------------------------------------
      11    1.0000      -14.7192      -17.9395      -12.6618        4.9650      -15.0319
      12    1.0000      -12.7256      -16.8370      -12.5910        4.2374      -12.7342
      13    1.0000      -10.1366      -13.2846      -10.5895        3.0450       -9.7867
      14    1.0000       -8.0058      -14.0481      -12.1471        2.6775       -7.2294
      15    0.0000       -2.2481       -7.9258      -12.9470       -3.2351       -0.4621
      16    0.0000        2.2469       -8.2063      -14.2589       -4.2112        4.0883
      17    0.0000        2.6604       -7.6140      -14.0860       -4.3434        4.7890
      18    0.0000        4.0451       -7.8372      -14.5669       -4.6411        6.1336
------------------------------------------------------------------------------------------------
                                   Spin Down
  K_point   26 :           0.6667          0.6667          0.3333
---------------------------------------------------------------------------------------------------
      11    1.0000      -14.7192      -17.9395      -12.6618        4.9650      -15.0319
      12    1.0000      -12.7256      -16.8370      -12.5910        4.2374      -12.7342
      13    1.0000      -10.1366      -13.2846      -10.5895        3.0450       -9.7867
      14    1.0000       -8.0058      -14.0481      -12.1471        2.6775       -7.2294
      15    0.0000       -2.2481       -7.9258      -12.9470       -3.2351       -0.4621
      16    0.0000        2.2469       -8.2063      -14.2589       -4.2112        4.0883
      17    0.0000        2.6604       -7.6140      -14.0860       -4.3434        4.7890
      18    0.0000        4.0451       -7.8372      -14.5669       -4.6411        6.1336
---------------------------------------------------------------------------------------------------

                                   Spin Up
  K_point   27 :           0.6667          0.6667          0.6667
---------------------------------------------------------------------------------------------------
      11    1.0000      -16.5770      -18.3185      -12.1229        5.6403      -17.1323
      12    1.0000      -11.1615      -15.2501      -11.8813        3.5952      -10.9351
      13    1.0000       -6.8345      -14.1251      -12.7528        2.2629       -5.9438
      14    1.0000       -6.8343      -14.1255      -12.7530        2.2630       -5.9438
      15    0.0000       -3.2577       -9.0714      -13.7460       -2.9671       -1.5502
      16    0.0000       -0.4544       -7.6540      -13.2269       -3.5335        1.5849
      17    0.0000       -0.4542       -7.6534      -13.2266       -3.5337        1.5852
      18    0.0000        4.2233       -8.3026      -14.8929       -4.4990        6.3145
------------------------------------------------------------------------------------------------
                                   Spin Down
  K_point   27 :           0.6667          0.6667          0.6667
---------------------------------------------------------------------------------------------------
      11    1.0000      -16.5770      -18.3185      -12.1229        5.6403      -17.1323
      12    1.0000      -11.1615      -15.2501      -11.8813        3.5952      -10.9351
      13    1.0000       -6.8345      -14.1251      -12.7528        2.2629       -5.9438
      14    1.0000       -6.8343      -14.1255      -12.7530        2.2630       -5.9438
      15    0.0000       -3.2577       -9.0714      -13.7460       -2.9671       -1.5502
      16    0.0000       -0.4544       -7.6540      -13.2269       -3.5335        1.5849
      17    0.0000       -0.4542       -7.6534      -13.2266       -3.5337        1.5852
      18    0.0000        4.2233       -8.3026      -14.8929       -4.4990        6.3145
---------------------------------------------------------------------------------------------------

  Spin-up valence band maximum (VBM) from the GW calculation is     -4.54491162 eV (relative to internal zero)
          at the k point   0.0000  0.0000  0.0000

  Spin-up conduction band mininum (CBM) from the GW calculation is     -1.77787085 eV (relative to internal zero)
          at the k point   0.3333  0.3333  0.0000

  Spin-up direct band gap from the GW calculation is      3.49918297 eV at the k point   0.0000  0.0000  0.0000

  Spin-up indirect band gap from the GW calculation is      2.76704077 eV

  Spin-Down valence band maximum (VBM) from the GW calculation is     -4.54491162 eV (relative to internal zero)



          at the k point   0.0000  0.0000  0.0000

  Spin-down conduction band mininum (CBM) from the GW calculation is     -1.77787085 eV (relative to internal zero)
          at the k point   0.3333  0.3333  0.0000

  Spin-down direct band gap from the GW calculation is      3.49918297 eV at the k point   0.0000  0.0000  0.0000

  Spin-down indirect band gap from the GW calculation is     -0.06533555    -0.16702243     2.76704077 eV

------------------------------------------------------------------------------
  Final output of selected total energy values:

  The following output summarizes some interesting total energy values
  at the end of a run (AFTER all relaxation, molecular dynamics, etc.).

  | Total energy of the DFT / Hartree-Fock s.c.f. calculation      :         -15800.366847158 eV
  | Final zero-broadening corrected energy (caution - metals only) :         -15800.366847158 eV
  | For reference only, the value of 1 Hartree used in FHI-aims is :             27.211384500 eV
  | For reference only, the overall average (free atom contribution
  | + realspace contribution) of the electrostatic potential after
  | s.c.f. convergence is                                          :            -13.309883867 eV

  Before relying on these values, please be sure to understand exactly which
  total energy value is referred to by a given number. Different objects may
  all carry the same name 'total energy'. Definitions:

  Total energy of the DFT / Hartree-Fock s.c.f. calculation:
  | Note that this energy does not include ANY quantities calculated after the
  | s.c.f. cycle, in particular not ANY RPA, MP2, etc. many-body perturbation terms.

  Final zero-broadening corrected energy:
  | For metallic systems only, a broadening of the occupation numbers at the Fermi
  | level can be extrapolated back to zero broadening by an electron-gas inspired
  | formula. For all systems that are not real metals, this value can be
  | meaningless and should be avoided.

------------------------------------------------------------------------------
  Methods described in the following list of references were used in this FHI-aims run.
  If you publish the results, please make sure to cite these reference if they apply.
  FHI-aims is an academic code, and for our developers (often, Ph.D. students
  and postdocs), scientific credit in the community is essential.
  Thank you for helping us!

  For any use of FHI-aims, please cite:

    Volker Blum, Ralf Gehrke, Felix Hanke, Paula Havu, Ville Havu,
    Xinguo Ren, Karsten Reuter, and Matthias Scheffler
    'Ab initio molecular simulations with numeric atom-centered orbitals'
    Computer Physics Communications 180, 2175-2196 (2009)
    http://doi.org/10.1016/j.cpc.2009.06.022


  For Hartree-Fock, hybrid functionals, or many-body perturbation theory used in your run, please cite:

    Xinguo Ren, Patrick Rinke, Volker Blum, Juergen Wieferink, Alex Tkatchenko,
    Andrea Sanfilippo, Karsten Reuter, and Matthias Scheffler,
    'Resolution-of-identity approach to Hartree-Fock, hybrid density functionals,
    RPA, MP2, and GW with numeric atom-centered orbital basis functions'
    New Journal of Physics 14, 053020 (2012).
    http://doi.org/10.1088/1367-2630/14/5/053020


  The provided symmetry information was generated with SPGlib:

    Atsushi Togo, Yusuke Seto, Dimitar Pashov
    SPGlib 1.7.3 obtained from http://spglib.sourceforge.net
    Licence: New BSD license
    Copyright (C) 2008 Atsushi Togo


  The ELSI infrastructure was used in your run to solve the Kohn-Sham electronic structure.
  Please check out https://wordpress.elsi-interchange.org to learn more.
  If scalability is important for your project, please acknowledge ELSI by citing:

    V. W-z. Yu, F. Corsetti, A. Garcia, W. P. Huhn, M. Jacquelin, W. Jia,
    B. Lange, L. Lin, J. Lu, W. Mi, A. Seifitokaldani, A. Vazquez-Mayagoitia,
    C. Yang, H. Yang, and V. Blum
    'ELSI: A unified software interface for Kohn-Sham electronic structure solvers'
    Computer Physics Communications 222, 267-285 (2018).
    http://doi.org/10.1016/j.cpc.2017.09.007


  For the real-space grid partitioning and parallelization used in this calculation, please cite:

    Ville Havu, Volker Blum, Paula Havu, and Matthias Scheffler,
    'Efficient O(N) integration for all-electron electronic structure calculation'
    'using numerically tabulated basis functions'
    Journal of Computational Physics 228, 8367-8379 (2009).
    http://doi.org/10.1016/j.jcp.2009.08.008


  The high-level electronic structure method used in your calculation
  employed our efficient localized resolution of identity for the Coulomb operator.
  Some calculations, especially large-scale hybrid density functional theory,
  are only possible thanks to this development. For this feature, please cite:

    Arvid Ihrig, Juergen Wieferink, Igor Ying Zhang, Matti Ropo, Xinguo Ren,
    Patrick Rinke, Matthias Scheffler, and Volker Blum,
    'Accurate localized resolution of identity approach for linear-scaling
    hybrid density functionals and for many-body perturbation theory'
    New Journal of Physics 117, 093020 (2015).
    http://doi.org/10.1088/1367-2630/17/9/093020

  Of course, there are many other important community references, e.g., those cited in the
  above references. Our list is limited to references that describe implementations in the
  FHI-aims code. The reason is purely practical (length of this list) - please credit others as well.
------------------------------------------------------------
Warnings summary:

At least    1 warnings were raised during execution.

------------------------------------------------------------
          Leaving FHI-aims.
          Date     :  20250626, Time     :  212528.470

          Computational steps:
          | Number of self-consistency cycles          :            8
          | Number of SCF (re)initializations          :            1

          Detailed time accounting                     :  max(cpu_time)    wall_clock(cpu1)
          | Total time                                  :        5.318 s           5.424 s
          | Preparation time                            :        0.104 s           0.108 s
          | Boundary condition initalization            :        0.020 s           0.022 s
          | Grid partitioning                           :        0.008 s           0.008 s
          | Preloading free-atom quantities on grid     :        0.042 s           0.045 s
          | Free-atom superposition energy              :        0.004 s           0.005 s
          | Total time for integrations                 :        0.245 s           0.248 s
          | Product basis setup: Total time             :        0.000 s           0.000 s
          | Product basis: | 2-center integrations     :(       0.000 s)  (       0.000 s)
          | Product basis: | LVL 3-center & coefficient:(       0.000 s)  (       0.000 s)
          | Initialization for periodic correlated calc :        2.809 s           2.836 s
          | Transforming LVL triples to recip. space    :        0.010 s           0.009 s
          | The exact-exchange part of GW calc.         :        0.092 s           0.094 s
          | Total time for polarizability calc.         :        0.643 s           0.670 s
          | Total time for polarizability of k space    :        0.286 s           0.291 s
          | Total time for head/wing terms for PBC GW   :        0.069 s           0.070 s
          | Total time for GW self-energy (regular k) c :        0.405 s           0.409 s
          | Aanalytic contiuation time                  :        0.002 s           0.002 s
          | Total time for solution of K.-S. equations  :        0.013 s           0.012 s
          | Total time for density update               :        0.405 s           0.413 s
          | Total time for mixing                       :        0.003 s           0.001 s
          | Total time for Hartree multipole update     :        0.003 s           0.002 s
          | Total time for Hartree multipole sum        :        0.266 s           0.272 s
          | Total time for total energy evaluation      :        0.001 s           0.000 s
          | Total time for scaled ZORA corrections      :        0.000 s           0.000 s

          Partial memory accounting:
          | Residual value for overall tracked memory usage across tasks:     0.000000 MB (should be 0.000000 MB)
          | Peak values for overall tracked memory usage:
          |   Minimum:       10.492 MB (on task 3 after allocating index_b)
          |   Maximum:       16.304 MB (on task 0 after allocating index_b)
          |   Average:       13.388 MB
          | Largest tracked array allocation:
          |   Minimum:        3.003 MB (trico_cell on task 1)
          |   Maximum:        5.740 MB (trico_cell on task 0)
          |   Average:        4.371 MB
          Note:  These values currently only include a subset of arrays which are explicitly tracked.
          The "true" memory usage will be greater.

          Have a nice day.
------------------------------------------------------------
