unknown system                          
   1.00000000000000     
     0.000000    2.775115    2.775115
     2.775115    0.000000    2.775115
     2.775115    2.775115    0.000000
   Ag   Cl
     1     1
Direct
  0.000000  0.000000  0.000000
  0.500000  0.500000  0.500000
 
   2   2   2
 0.34189913749E+03 0.32909125697E+03 0.29448537618E+03 0.24704114302E+03 0.19578362641E+03
 0.14661409818E+03 0.10273150182E+03 0.66485715448E+02
