unknown system                          
   1.00000000000000     
     5.641800    0.000000    0.000000
     0.000000    5.641800    0.000000
     0.000000    0.000000    5.641800
   Na   Cl
     4     4
Direct
  0.000000  0.000000  0.000000
  0.000000  0.500000  0.500000
  0.500000  0.000000  0.500000
  0.500000  0.500000  0.000000
  0.500000  0.500000  0.500000
  0.500000  0.000000  0.000000
  0.000000  0.500000  0.000000
  0.000000  0.000000  0.500000
 
   36   36   36
 0.27118302510E+01 0.23606186250E+01 0.19275292501E+01 0.17764663940E+01 0.17512999764E+01
 0.26393660566E+01 0.48131395310E+01 0.80389578361E+01 0.13693496259E+02 0.23843307056E+02
 0.40890114265E+02 0.71062633682E+02 0.12515605745E+03 0.20868661185E+03 0.28995868855E+03
 0.30812906732E+03 0.22093824823E+03 0.77074700273E+02 0.49249757532E+01 0.77074700273E+02
 0.22093824823E+03 0.30812906732E+03 0.28995868855E+03 0.20868661185E+03 0.12515605745E+03
 0.71062633682E+02 0.40890114265E+02 0.23843307056E+02 0.13693496259E+02 0.80389578361E+01
 0.48131395310E+01 0.26393660566E+01 0.17512999764E+01 0.17764663940E+01 0.19275292501E+01
 0.23606186250E+01 0.23606186250E+01 0.20606904967E+01 0.17088332399E+01 0.16290592384E+01
 0.16925934823E+01 0.26094670227E+01 0.47250548618E+01 0.78619197952E+01 0.13317609641E+02
 0.23068717623E+02 0.39426024967E+02 0.68157134858E+02 0.11928339472E+03 0.19943326135E+03
 0.28177737533E+03 0.31171960301E+03 0.25003874189E+03 0.13572848064E+03 0.77074700273E+02
 0.13572848064E+03 0.25003874189E+03 0.31171960301E+03 0.28177737533E+03 0.19943326135E+03
 0.11928339472E+03 0.68157134858E+02 0.39426024967E+02 0.23068717623E+02 0.13317609641E+02
 0.78619197952E+01 0.47250548618E+01 0.26094670227E+01 0.16925934823E+01 0.16290592384E+01
 0.17088332399E+01 0.20606904967E+01 0.19275292501E+01 0.17088332399E+01 0.14512956521E+01
 0.14343706197E+01 0.16303198303E+01 0.25649325658E+01 0.44992399393E+01 0.73712608750E+01
 0.12270828749E+02 0.20929287830E+02 0.35408048979E+02 0.60302319579E+02 0.10359222160E+03
 0.17327762099E+03 0.25460870497E+03 0.30754684861E+03 0.30010099880E+03 0.25003874189E+03
 0.22093824823E+03 0.25003874189E+03 0.30010099880E+03 0.30754684861E+03 0.25460870497E+03
 0.17327762099E+03 0.10359222160E+03 0.60302319579E+02 0.35408048979E+02 0.20929287830E+02
 0.12270828749E+02 0.73712608750E+01 0.44992399393E+01 0.25649325658E+01 0.16303198303E+01
 0.14343706197E+01 0.14512956521E+01 0.17088332399E+01 0.17764663940E+01 0.16290592384E+01
 0.14343706197E+01 0.14344856822E+01 0.17100279527E+01 0.25866599533E+01 0.42264438276E+01
 0.66754890693E+01 0.10768958724E+02 0.17899034801E+02 0.29776752456E+02 0.49598163722E+02
 0.82763232636E+02 0.13605366933E+03 0.20731226168E+03 0.27251954451E+03 0.30754684861E+03
 0.31171960301E+03 0.30812906732E+03 0.31171960301E+03 0.30754684861E+03 0.27251954451E+03
 0.20731226168E+03 0.13605366933E+03 0.82763232636E+02 0.49598163722E+02 0.29776752456E+02
 0.17899034801E+02 0.10768958724E+02 0.66754890693E+01 0.42264438276E+01 0.25866599533E+01
 0.17100279527E+01 0.14344856822E+01 0.14343706197E+01 0.16290592384E+01 0.17512999764E+01
 0.16925934823E+01 0.16303198303E+01 0.17100279527E+01 0.20270951912E+01 0.27580964715E+01
 0.40145084958E+01 0.59270765050E+01 0.90995420858E+01 0.14561851701E+02 0.23637029361E+02
 0.38335188549E+02 0.61757588603E+02 0.97939175390E+02 0.14937290141E+03 0.20731226168E+03
 0.25460870497E+03 0.28177737533E+03 0.28995868855E+03 0.28177737533E+03 0.25460870497E+03
 0.20731226168E+03 0.14937290141E+03 0.97939175390E+02 0.61757588603E+02 0.38335188549E+02
 0.23637029361E+02 0.14561851701E+02 0.90995420858E+01 0.59270765050E+01 0.40145084958E+01
 0.27580964715E+01 0.20270951912E+01 0.17100279527E+01 0.16303198303E+01 0.16925934823E+01
 0.26393660566E+01 0.26094670227E+01 0.25649325658E+01 0.25866599533E+01 0.27580964715E+01
 0.31874920272E+01 0.39777274896E+01 0.52976330775E+01 0.75516249544E+01 0.11439732677E+02
 0.17909609649E+02 0.28172207501E+02 0.43784899849E+02 0.66617087351E+02 0.97939175390E+02
 0.13605366933E+03 0.17327762099E+03 0.19943326135E+03 0.20868661185E+03 0.19943326135E+03
 0.17327762099E+03 0.13605366933E+03 0.97939175390E+02 0.66617087351E+02 0.43784899849E+02
 0.28172207501E+02 0.17909609649E+02 0.11439732677E+02 0.75516249544E+01 0.52976330775E+01
 0.39777274896E+01 0.31874920272E+01 0.27580964715E+01 0.25866599533E+01 0.25649325658E+01
 0.26094670227E+01 0.48131395310E+01 0.47250548618E+01 0.44992399393E+01 0.42264438276E+01
 0.40145084958E+01 0.39777274896E+01 0.42395810240E+01 0.49489894898E+01 0.63560370485E+01
 0.88915891387E+01 0.13174435847E+02 0.19935023197E+02 0.29918470834E+02 0.43784899849E+02
 0.61757588603E+02 0.82763232636E+02 0.10359222160E+03 0.11928339472E+03 0.12515605745E+03
 0.11928339472E+03 0.10359222160E+03 0.82763232636E+02 0.61757588603E+02 0.43784899849E+02
 0.29918470834E+02 0.19935023197E+02 0.13174435847E+02 0.88915891387E+01 0.63560370485E+01
 0.49489894898E+01 0.42395810240E+01 0.39777274896E+01 0.40145084958E+01 0.42264438276E+01
 0.44992399393E+01 0.47250548618E+01 0.80389578361E+01 0.78619197952E+01 0.73712608750E+01
 0.66754890693E+01 0.59270765050E+01 0.52976330775E+01 0.49489894898E+01 0.50188484608E+01
 0.56549009434E+01 0.70865472123E+01 0.96669438525E+01 0.13824535909E+02 0.19935023197E+02
 0.28172207501E+02 0.38335188549E+02 0.49598163722E+02 0.60302319579E+02 0.68157134858E+02
 0.71062633682E+02 0.68157134858E+02 0.60302319579E+02 0.49598163722E+02 0.38335188549E+02
 0.28172207501E+02 0.19935023197E+02 0.13824535909E+02 0.96669438525E+01 0.70865472123E+01
 0.56549009434E+01 0.50188484608E+01 0.49489894898E+01 0.52976330775E+01 0.59270765050E+01
 0.66754890693E+01 0.73712608750E+01 0.78619197952E+01 0.13693496259E+02 0.13317609641E+02
 0.12270828749E+02 0.10768958724E+02 0.90995420858E+01 0.75516249544E+01 0.63560370485E+01
 0.56549009434E+01 0.55237553834E+01 0.60408823463E+01 0.73518248188E+01 0.96669438525E+01
 0.13174435847E+02 0.17909609649E+02 0.23637029361E+02 0.29776752456E+02 0.35408048979E+02
 0.39426024967E+02 0.40890114265E+02 0.39426024967E+02 0.35408048979E+02 0.29776752456E+02
 0.23637029361E+02 0.17909609649E+02 0.13174435847E+02 0.96669438525E+01 0.73518248188E+01
 0.60408823463E+01 0.55237553834E+01 0.56549009434E+01 0.63560370485E+01 0.75516249544E+01
 0.90995420858E+01 0.10768958724E+02 0.12270828749E+02 0.13317609641E+02 0.23843307056E+02
 0.23068717623E+02 0.20929287830E+02 0.17899034801E+02 0.14561851701E+02 0.11439732677E+02
 0.88915891387E+01 0.70865472123E+01 0.60408823463E+01 0.57024644622E+01 0.60408823463E+01
 0.70865472123E+01 0.88915891387E+01 0.11439732677E+02 0.14561851701E+02 0.17899034801E+02
 0.20929287830E+02 0.23068717623E+02 0.23843307056E+02 0.23068717623E+02 0.20929287830E+02
 0.17899034801E+02 0.14561851701E+02 0.11439732677E+02 0.88915891387E+01 0.70865472123E+01
 0.60408823463E+01 0.57024644622E+01 0.60408823463E+01 0.70865472123E+01 0.88915891387E+01
 0.11439732677E+02 0.14561851701E+02 0.17899034801E+02 0.20929287830E+02 0.23068717623E+02
 0.40890114265E+02 0.39426024967E+02 0.35408048979E+02 0.29776752456E+02 0.23637029361E+02
 0.17909609649E+02 0.13174435847E+02 0.96669438525E+01 0.73518248188E+01 0.60408823463E+01
 0.55237553834E+01 0.56549009434E+01 0.63560370485E+01 0.75516249544E+01 0.90995420858E+01
 0.10768958724E+02 0.12270828749E+02 0.13317609641E+02 0.13693496259E+02 0.13317609641E+02
 0.12270828749E+02 0.10768958724E+02 0.90995420858E+01 0.75516249544E+01 0.63560370485E+01
 0.56549009434E+01 0.55237553834E+01 0.60408823463E+01 0.73518248188E+01 0.96669438525E+01
 0.13174435847E+02 0.17909609649E+02 0.23637029361E+02 0.29776752456E+02 0.35408048979E+02
 0.39426024967E+02 0.71062633682E+02 0.68157134858E+02 0.60302319579E+02 0.49598163722E+02
 0.38335188549E+02 0.28172207501E+02 0.19935023197E+02 0.13824535909E+02 0.96669438525E+01
 0.70865472123E+01 0.56549009434E+01 0.50188484608E+01 0.49489894898E+01 0.52976330775E+01
 0.59270765050E+01 0.66754890693E+01 0.73712608750E+01 0.78619197952E+01 0.80389578361E+01
 0.78619197952E+01 0.73712608750E+01 0.66754890693E+01 0.59270765050E+01 0.52976330775E+01
 0.49489894898E+01 0.50188484608E+01 0.56549009434E+01 0.70865472123E+01 0.96669438525E+01
 0.13824535909E+02 0.19935023197E+02 0.28172207501E+02 0.38335188549E+02 0.49598163722E+02
 0.60302319579E+02 0.68157134858E+02 0.12515605745E+03 0.11928339472E+03 0.10359222160E+03
 0.82763232636E+02 0.61757588603E+02 0.43784899849E+02 0.29918470834E+02 0.19935023197E+02
 0.13174435847E+02 0.88915891387E+01 0.63560370485E+01 0.49489894898E+01 0.42395810240E+01
 0.39777274896E+01 0.40145084958E+01 0.42264438276E+01 0.44992399393E+01 0.47250548618E+01
 0.48131395310E+01 0.47250548618E+01 0.44992399393E+01 0.42264438276E+01 0.40145084958E+01
 0.39777274896E+01 0.42395810240E+01 0.49489894898E+01 0.63560370485E+01 0.88915891387E+01
 0.13174435847E+02 0.19935023197E+02 0.29918470834E+02 0.43784899849E+02 0.61757588603E+02
 0.82763232636E+02 0.10359222160E+03 0.11928339472E+03 0.20868661185E+03 0.19943326135E+03
 0.17327762099E+03 0.13605366933E+03 0.97939175390E+02 0.66617087351E+02 0.43784899849E+02
 0.28172207501E+02 0.17909609649E+02 0.11439732677E+02 0.75516249544E+01 0.52976330775E+01
 0.39777274896E+01 0.31874920272E+01 0.27580964715E+01 0.25866599533E+01 0.25649325658E+01
 0.26094670227E+01 0.26393660566E+01 0.26094670227E+01 0.25649325658E+01 0.25866599533E+01
 0.27580964715E+01 0.31874920272E+01 0.39777274896E+01 0.52976330775E+01 0.75516249544E+01
 0.11439732677E+02 0.17909609649E+02 0.28172207501E+02 0.43784899849E+02 0.66617087351E+02
 0.97939175390E+02 0.13605366933E+03 0.17327762099E+03 0.19943326135E+03 0.28995868855E+03
 0.28177737533E+03 0.25460870497E+03 0.20731226168E+03 0.14937290141E+03 0.97939175390E+02
 0.61757588603E+02 0.38335188549E+02 0.23637029361E+02 0.14561851701E+02 0.90995420858E+01
 0.59270765050E+01 0.40145084958E+01 0.27580964715E+01 0.20270951912E+01 0.17100279527E+01
 0.16303198303E+01 0.16925934823E+01 0.17512999764E+01 0.16925934823E+01 0.16303198303E+01
 0.17100279527E+01 0.20270951912E+01 0.27580964715E+01 0.40145084958E+01 0.59270765050E+01
 0.90995420858E+01 0.14561851701E+02 0.23637029361E+02 0.38335188549E+02 0.61757588603E+02
 0.97939175390E+02 0.14937290141E+03 0.20731226168E+03 0.25460870497E+03 0.28177737533E+03
 0.30812906732E+03 0.31171960301E+03 0.30754684861E+03 0.27251954451E+03 0.20731226168E+03
 0.13605366933E+03 0.82763232636E+02 0.49598163722E+02 0.29776752456E+02 0.17899034801E+02
 0.10768958724E+02 0.66754890693E+01 0.42264438276E+01 0.25866599533E+01 0.17100279527E+01
 0.14344856822E+01 0.14343706197E+01 0.16290592384E+01 0.17764663940E+01 0.16290592384E+01
 0.14343706197E+01 0.14344856822E+01 0.17100279527E+01 0.25866599533E+01 0.42264438276E+01
 0.66754890693E+01 0.10768958724E+02 0.17899034801E+02 0.29776752456E+02 0.49598163722E+02
 0.82763232636E+02 0.13605366933E+03 0.20731226168E+03 0.27251954451E+03 0.30754684861E+03
 0.31171960301E+03 0.22093824823E+03 0.25003874189E+03 0.30010099880E+03 0.30754684861E+03
 0.25460870497E+03 0.17327762099E+03 0.10359222160E+03 0.60302319579E+02 0.35408048979E+02
 0.20929287830E+02 0.12270828749E+02 0.73712608750E+01 0.44992399393E+01 0.25649325658E+01
 0.16303198303E+01 0.14343706197E+01 0.14512956521E+01 0.17088332399E+01 0.19275292501E+01
 0.17088332399E+01 0.14512956521E+01 0.14343706197E+01 0.16303198303E+01 0.25649325658E+01
 0.44992399393E+01 0.73712608750E+01 0.12270828749E+02 0.20929287830E+02 0.35408048979E+02
 0.60302319579E+02 0.10359222160E+03 0.17327762099E+03 0.25460870497E+03 0.30754684861E+03
 0.30010099880E+03 0.25003874189E+03 0.77074700273E+02 0.13572848064E+03 0.25003874189E+03
 0.31171960301E+03 0.28177737533E+03 0.19943326135E+03 0.11928339472E+03 0.68157134858E+02
 0.39426024967E+02 0.23068717623E+02 0.13317609641E+02 0.78619197952E+01 0.47250548618E+01
 0.26094670227E+01 0.16925934823E+01 0.16290592384E+01 0.17088332399E+01 0.20606904967E+01
 0.23606186250E+01 0.20606904967E+01 0.17088332399E+01 0.16290592384E+01 0.16925934823E+01
 0.26094670227E+01 0.47250548618E+01 0.78619197952E+01 0.13317609641E+02 0.23068717623E+02
 0.39426024967E+02 0.68157134858E+02 0.11928339472E+03 0.19943326135E+03 0.28177737533E+03
 0.31171960301E+03 0.25003874189E+03 0.13572848064E+03 0.49249757532E+01 0.77074700273E+02
 0.22093824823E+03 0.30812906732E+03 0.28995868855E+03 0.20868661185E+03 0.12515605745E+03
 0.71062633682E+02 0.40890114265E+02 0.23843307056E+02 0.13693496259E+02 0.80389578361E+01
 0.48131395310E+01 0.26393660566E+01 0.17512999764E+01 0.17764663940E+01 0.19275292501E+01
 0.23606186250E+01 0.27118302510E+01 0.23606186250E+01 0.19275292501E+01 0.17764663940E+01
 0.17512999764E+01 0.26393660566E+01 0.48131395310E+01 0.80389578361E+01 0.13693496259E+02
 0.23843307056E+02 0.40890114265E+02 0.71062633682E+02 0.12515605745E+03 0.20868661185E+03
 0.28995868855E+03 0.30812906732E+03 0.22093824823E+03 0.77074700273E+02 0.77074700273E+02
 0.13572848064E+03 0.25003874189E+03 0.31171960301E+03 0.28177737533E+03 0.19943326135E+03
 0.11928339472E+03 0.68157134858E+02 0.39426024967E+02 0.23068717623E+02 0.13317609641E+02
 0.78619197952E+01 0.47250548618E+01 0.26094670227E+01 0.16925934823E+01 0.16290592384E+01
 0.17088332399E+01 0.20606904967E+01 0.23606186250E+01 0.20606904967E+01 0.17088332399E+01
 0.16290592384E+01 0.16925934823E+01 0.26094670227E+01 0.47250548618E+01 0.78619197952E+01
 0.13317609641E+02 0.23068717623E+02 0.39426024967E+02 0.68157134858E+02 0.11928339472E+03
 0.19943326135E+03 0.28177737533E+03 0.31171960301E+03 0.25003874189E+03 0.13572848064E+03
 0.22093824823E+03 0.25003874189E+03 0.30010099880E+03 0.30754684861E+03 0.25460870497E+03
 0.17327762099E+03 0.10359222160E+03 0.60302319579E+02 0.35408048979E+02 0.20929287830E+02
 0.12270828749E+02 0.73712608750E+01 0.44992399393E+01 0.25649325658E+01 0.16303198303E+01
 0.14343706197E+01 0.14512956521E+01 0.17088332399E+01 0.19275292501E+01 0.17088332399E+01
 0.14512956521E+01 0.14343706197E+01 0.16303198303E+01 0.25649325658E+01 0.44992399393E+01
 0.73712608750E+01 0.12270828749E+02 0.20929287830E+02 0.35408048979E+02 0.60302319579E+02
 0.10359222160E+03 0.17327762099E+03 0.25460870497E+03 0.30754684861E+03 0.30010099880E+03
 0.25003874189E+03 0.30812906732E+03 0.31171960301E+03 0.30754684861E+03 0.27251954451E+03
 0.20731226168E+03 0.13605366933E+03 0.82763232636E+02 0.49598163722E+02 0.29776752456E+02
 0.17899034801E+02 0.10768958724E+02 0.66754890693E+01 0.42264438276E+01 0.25866599533E+01
 0.17100279527E+01 0.14344856822E+01 0.14343706197E+01 0.16290592384E+01 0.17764663940E+01
 0.16290592384E+01 0.14343706197E+01 0.14344856822E+01 0.17100279527E+01 0.25866599533E+01
 0.42264438276E+01 0.66754890693E+01 0.10768958724E+02 0.17899034801E+02 0.29776752456E+02
 0.49598163722E+02 0.82763232636E+02 0.13605366933E+03 0.20731226168E+03 0.27251954451E+03
 0.30754684861E+03 0.31171960301E+03 0.28995868855E+03 0.28177737533E+03 0.25460870497E+03
 0.20731226168E+03 0.14937290141E+03 0.97939175390E+02 0.61757588603E+02 0.38335188549E+02
 0.23637029361E+02 0.14561851701E+02 0.90995420858E+01 0.59270765050E+01 0.40145084958E+01
 0.27580964715E+01 0.20270951912E+01 0.17100279527E+01 0.16303198303E+01 0.16925934823E+01
 0.17512999764E+01 0.16925934823E+01 0.16303198303E+01 0.17100279527E+01 0.20270951912E+01
 0.27580964715E+01 0.40145084958E+01 0.59270765050E+01 0.90995420858E+01 0.14561851701E+02
 0.23637029361E+02 0.38335188549E+02 0.61757588603E+02 0.97939175390E+02 0.14937290141E+03
 0.20731226168E+03 0.25460870497E+03 0.28177737533E+03 0.20868661185E+03 0.19943326135E+03
 0.17327762099E+03 0.13605366933E+03 0.97939175390E+02 0.66617087351E+02 0.43784899849E+02
 0.28172207501E+02 0.17909609649E+02 0.11439732677E+02 0.75516249544E+01 0.52976330775E+01
 0.39777274896E+01 0.31874920272E+01 0.27580964715E+01 0.25866599533E+01 0.25649325658E+01
 0.26094670227E+01 0.26393660566E+01 0.26094670227E+01 0.25649325658E+01 0.25866599533E+01
 0.27580964715E+01 0.31874920272E+01 0.39777274896E+01 0.52976330775E+01 0.75516249544E+01
 0.11439732677E+02 0.17909609649E+02 0.28172207501E+02 0.43784899849E+02 0.66617087351E+02
 0.97939175390E+02 0.13605366933E+03 0.17327762099E+03 0.19943326135E+03 0.12515605745E+03
 0.11928339472E+03 0.10359222160E+03 0.82763232636E+02 0.61757588603E+02 0.43784899849E+02
 0.29918470834E+02 0.19935023197E+02 0.13174435847E+02 0.88915891387E+01 0.63560370485E+01
 0.49489894898E+01 0.42395810240E+01 0.39777274896E+01 0.40145084958E+01 0.42264438276E+01
 0.44992399393E+01 0.47250548618E+01 0.48131395310E+01 0.47250548618E+01 0.44992399393E+01
 0.42264438276E+01 0.40145084958E+01 0.39777274896E+01 0.42395810240E+01 0.49489894898E+01
 0.63560370485E+01 0.88915891387E+01 0.13174435847E+02 0.19935023197E+02 0.29918470834E+02
 0.43784899849E+02 0.61757588603E+02 0.82763232636E+02 0.10359222160E+03 0.11928339472E+03
 0.71062633682E+02 0.68157134858E+02 0.60302319579E+02 0.49598163722E+02 0.38335188549E+02
 0.28172207501E+02 0.19935023197E+02 0.13824535909E+02 0.96669438525E+01 0.70865472123E+01
 0.56549009434E+01 0.50188484608E+01 0.49489894898E+01 0.52976330775E+01 0.59270765050E+01
 0.66754890693E+01 0.73712608750E+01 0.78619197952E+01 0.80389578361E+01 0.78619197952E+01
 0.73712608750E+01 0.66754890693E+01 0.59270765050E+01 0.52976330775E+01 0.49489894898E+01
 0.50188484608E+01 0.56549009434E+01 0.70865472123E+01 0.96669438525E+01 0.13824535909E+02
 0.19935023197E+02 0.28172207501E+02 0.38335188549E+02 0.49598163722E+02 0.60302319579E+02
 0.68157134858E+02 0.40890114265E+02 0.39426024967E+02 0.35408048979E+02 0.29776752456E+02
 0.23637029361E+02 0.17909609649E+02 0.13174435847E+02 0.96669438525E+01 0.73518248188E+01
 0.60408823463E+01 0.55237553834E+01 0.56549009434E+01 0.63560370485E+01 0.75516249544E+01
 0.90995420858E+01 0.10768958724E+02 0.12270828749E+02 0.13317609641E+02 0.13693496259E+02
 0.13317609641E+02 0.12270828749E+02 0.10768958724E+02 0.90995420858E+01 0.75516249544E+01
 0.63560370485E+01 0.56549009434E+01 0.55237553834E+01 0.60408823463E+01 0.73518248188E+01
 0.96669438525E+01 0.13174435847E+02 0.17909609649E+02 0.23637029361E+02 0.29776752456E+02
 0.35408048979E+02 0.39426024967E+02 0.23843307056E+02 0.23068717623E+02 0.20929287830E+02
 0.17899034801E+02 0.14561851701E+02 0.11439732677E+02 0.88915891387E+01 0.70865472123E+01
 0.60408823463E+01 0.57024644622E+01 0.60408823463E+01 0.70865472123E+01 0.88915891387E+01
 0.11439732677E+02 0.14561851701E+02 0.17899034801E+02 0.20929287830E+02 0.23068717623E+02
 0.23843307056E+02 0.23068717623E+02 0.20929287830E+02 0.17899034801E+02 0.14561851701E+02
 0.11439732677E+02 0.88915891387E+01 0.70865472123E+01 0.60408823463E+01 0.57024644622E+01
 0.60408823463E+01 0.70865472123E+01 0.88915891387E+01 0.11439732677E+02 0.14561851701E+02
 0.17899034801E+02 0.20929287830E+02 0.23068717623E+02 0.13693496259E+02 0.13317609641E+02
 0.12270828749E+02 0.10768958724E+02 0.90995420858E+01 0.75516249544E+01 0.63560370485E+01
 0.56549009434E+01 0.55237553834E+01 0.60408823463E+01 0.73518248188E+01 0.96669438525E+01
 0.13174435847E+02 0.17909609649E+02 0.23637029361E+02 0.29776752456E+02 0.35408048979E+02
 0.39426024967E+02 0.40890114265E+02 0.39426024967E+02 0.35408048979E+02 0.29776752456E+02
 0.23637029361E+02 0.17909609649E+02 0.13174435847E+02 0.96669438525E+01 0.73518248188E+01
 0.60408823463E+01 0.55237553834E+01 0.56549009434E+01 0.63560370485E+01 0.75516249544E+01
 0.90995420858E+01 0.10768958724E+02 0.12270828749E+02 0.13317609641E+02 0.80389578361E+01
 0.78619197952E+01 0.73712608750E+01 0.66754890693E+01 0.59270765050E+01 0.52976330775E+01
 0.49489894898E+01 0.50188484608E+01 0.56549009434E+01 0.70865472123E+01 0.96669438525E+01
 0.13824535909E+02 0.19935023197E+02 0.28172207501E+02 0.38335188549E+02 0.49598163722E+02
 0.60302319579E+02 0.68157134858E+02 0.71062633682E+02 0.68157134858E+02 0.60302319579E+02
 0.49598163722E+02 0.38335188549E+02 0.28172207501E+02 0.19935023197E+02 0.13824535909E+02
 0.96669438525E+01 0.70865472123E+01 0.56549009434E+01 0.50188484608E+01 0.49489894898E+01
 0.52976330775E+01 0.59270765050E+01 0.66754890693E+01 0.73712608750E+01 0.78619197952E+01
 0.48131395310E+01 0.47250548618E+01 0.44992399393E+01 0.42264438276E+01 0.40145084958E+01
 0.39777274896E+01 0.42395810240E+01 0.49489894898E+01 0.63560370485E+01 0.88915891387E+01
 0.13174435847E+02 0.19935023197E+02 0.29918470834E+02 0.43784899849E+02 0.61757588603E+02
 0.82763232636E+02 0.10359222160E+03 0.11928339472E+03 0.12515605745E+03 0.11928339472E+03
 0.10359222160E+03 0.82763232636E+02 0.61757588603E+02 0.43784899849E+02 0.29918470834E+02
 0.19935023197E+02 0.13174435847E+02 0.88915891387E+01 0.63560370485E+01 0.49489894898E+01
 0.42395810240E+01 0.39777274896E+01 0.40145084958E+01 0.42264438276E+01 0.44992399393E+01
 0.47250548618E+01 0.26393660566E+01 0.26094670227E+01 0.25649325658E+01 0.25866599533E+01
 0.27580964715E+01 0.31874920272E+01 0.39777274896E+01 0.52976330775E+01 0.75516249544E+01
 0.11439732677E+02 0.17909609649E+02 0.28172207501E+02 0.43784899849E+02 0.66617087351E+02
 0.97939175390E+02 0.13605366933E+03 0.17327762099E+03 0.19943326135E+03 0.20868661185E+03
 0.19943326135E+03 0.17327762099E+03 0.13605366933E+03 0.97939175390E+02 0.66617087351E+02
 0.43784899849E+02 0.28172207501E+02 0.17909609649E+02 0.11439732677E+02 0.75516249544E+01
 0.52976330775E+01 0.39777274896E+01 0.31874920272E+01 0.27580964715E+01 0.25866599533E+01
 0.25649325658E+01 0.26094670227E+01 0.17512999764E+01 0.16925934823E+01 0.16303198303E+01
 0.17100279527E+01 0.20270951912E+01 0.27580964715E+01 0.40145084958E+01 0.59270765050E+01
 0.90995420858E+01 0.14561851701E+02 0.23637029361E+02 0.38335188549E+02 0.61757588603E+02
 0.97939175390E+02 0.14937290141E+03 0.20731226168E+03 0.25460870497E+03 0.28177737533E+03
 0.28995868855E+03 0.28177737533E+03 0.25460870497E+03 0.20731226168E+03 0.14937290141E+03
 0.97939175390E+02 0.61757588603E+02 0.38335188549E+02 0.23637029361E+02 0.14561851701E+02
 0.90995420858E+01 0.59270765050E+01 0.40145084958E+01 0.27580964715E+01 0.20270951912E+01
 0.17100279527E+01 0.16303198303E+01 0.16925934823E+01 0.17764663940E+01 0.16290592384E+01
 0.14343706197E+01 0.14344856822E+01 0.17100279527E+01 0.25866599533E+01 0.42264438276E+01
 0.66754890693E+01 0.10768958724E+02 0.17899034801E+02 0.29776752456E+02 0.49598163722E+02
 0.82763232636E+02 0.13605366933E+03 0.20731226168E+03 0.27251954451E+03 0.30754684861E+03
 0.31171960301E+03 0.30812906732E+03 0.31171960301E+03 0.30754684861E+03 0.27251954451E+03
 0.20731226168E+03 0.13605366933E+03 0.82763232636E+02 0.49598163722E+02 0.29776752456E+02
 0.17899034801E+02 0.10768958724E+02 0.66754890693E+01 0.42264438276E+01 0.25866599533E+01
 0.17100279527E+01 0.14344856822E+01 0.14343706197E+01 0.16290592384E+01 0.19275292501E+01
 0.17088332399E+01 0.14512956521E+01 0.14343706197E+01 0.16303198303E+01 0.25649325658E+01
 0.44992399393E+01 0.73712608750E+01 0.12270828749E+02 0.20929287830E+02 0.35408048979E+02
 0.60302319579E+02 0.10359222160E+03 0.17327762099E+03 0.25460870497E+03 0.30754684861E+03
 0.30010099880E+03 0.25003874189E+03 0.22093824823E+03 0.25003874189E+03 0.30010099880E+03
 0.30754684861E+03 0.25460870497E+03 0.17327762099E+03 0.10359222160E+03 0.60302319579E+02
 0.35408048979E+02 0.20929287830E+02 0.12270828749E+02 0.73712608750E+01 0.44992399393E+01
 0.25649325658E+01 0.16303198303E+01 0.14343706197E+01 0.14512956521E+01 0.17088332399E+01
 0.23606186250E+01 0.20606904967E+01 0.17088332399E+01 0.16290592384E+01 0.16925934823E+01
 0.26094670227E+01 0.47250548618E+01 0.78619197952E+01 0.13317609641E+02 0.23068717623E+02
 0.39426024967E+02 0.68157134858E+02 0.11928339472E+03 0.19943326135E+03 0.28177737533E+03
 0.31171960301E+03 0.25003874189E+03 0.13572848064E+03 0.77074700273E+02 0.13572848064E+03
 0.25003874189E+03 0.31171960301E+03 0.28177737533E+03 0.19943326135E+03 0.11928339472E+03
 0.68157134858E+02 0.39426024967E+02 0.23068717623E+02 0.13317609641E+02 0.78619197952E+01
 0.47250548618E+01 0.26094670227E+01 0.16925934823E+01 0.16290592384E+01 0.17088332399E+01
 0.20606904967E+01 0.23606186250E+01 0.20606904967E+01 0.17088332399E+01 0.16290592384E+01
 0.16925934823E+01 0.26094670227E+01 0.47250548618E+01 0.78619197952E+01 0.13317609641E+02
 0.23068717623E+02 0.39426024967E+02 0.68157134858E+02 0.11928339472E+03 0.19943326135E+03
 0.28177737533E+03 0.31171960301E+03 0.25003874189E+03 0.13572848064E+03 0.77074700273E+02
 0.13572848064E+03 0.25003874189E+03 0.31171960301E+03 0.28177737533E+03 0.19943326135E+03
 0.11928339472E+03 0.68157134858E+02 0.39426024967E+02 0.23068717623E+02 0.13317609641E+02
 0.78619197952E+01 0.47250548618E+01 0.26094670227E+01 0.16925934823E+01 0.16290592384E+01
 0.17088332399E+01 0.20606904967E+01 0.20606904967E+01 0.18057904278E+01 0.15245329187E+01
 0.15058454991E+01 0.16455020290E+01 0.25840619929E+01 0.46418052487E+01 0.76903357525E+01
 0.12954261099E+02 0.22324674422E+02 0.38025264475E+02 0.65399162389E+02 0.11374090963E+03
 0.19042015478E+03 0.27303662355E+03 0.31245863556E+03 0.27216271683E+03 0.18290143040E+03
 0.13572848064E+03 0.18290143040E+03 0.27216271683E+03 0.31245863556E+03 0.27303662355E+03
 0.19042015478E+03 0.11374090963E+03 0.65399162389E+02 0.38025264475E+02 0.22324674422E+02
 0.12954261099E+02 0.76903357525E+01 0.46418052487E+01 0.25840619929E+01 0.16455020290E+01
 0.15058454991E+01 0.15245329187E+01 0.18057904278E+01 0.17088332399E+01 0.15245329187E+01
 0.13229106596E+01 0.13543878879E+01 0.16044935037E+01 0.25478931254E+01 0.44273106411E+01
 0.72143708228E+01 0.11942257015E+02 0.20268434290E+02 0.34177636953E+02 0.57934635945E+02
 0.98924575837E+02 0.16513355361E+03 0.24504476340E+03 0.30243172131E+03 0.30722026171E+03
 0.27216271683E+03 0.25003874189E+03 0.27216271683E+03 0.30722026171E+03 0.30243172131E+03
 0.24504476340E+03 0.16513355361E+03 0.98924575837E+02 0.57934635945E+02 0.34177636953E+02
 0.20268434290E+02 0.11942257015E+02 0.72143708228E+01 0.44273106411E+01 0.25478931254E+01
 0.16044935037E+01 0.13543878879E+01 0.13229106596E+01 0.15245329187E+01 0.16290592384E+01
 0.15058454991E+01 0.13543878879E+01 0.13926628055E+01 0.17011427418E+01 0.25746554612E+01
 0.41656465681E+01 0.65385444107E+01 0.10489912554E+02 0.17353203448E+02 0.28776640662E+02
 0.47739310816E+02 0.79228193992E+02 0.12958920717E+03 0.19813922149E+03 0.26340395494E+03
 0.30243172131E+03 0.31245863556E+03 0.31171960301E+03 0.31245863556E+03 0.30243172131E+03
 0.26340395494E+03 0.19813922149E+03 0.12958920717E+03 0.79228193992E+02 0.47739310816E+02
 0.28776640662E+02 0.17353203448E+02 0.10489912554E+02 0.65385444107E+01 0.41656465681E+01
 0.25746554612E+01 0.17011427418E+01 0.13926628055E+01 0.13543878879E+01 0.15058454991E+01
 0.16925934823E+01 0.16455020290E+01 0.16044935037E+01 0.17011427418E+01 0.20266784818E+01
 0.27434023490E+01 0.39587101497E+01 0.58102231987E+01 0.88748921696E+01 0.14139155268E+02
 0.22877265228E+02 0.36977953448E+02 0.59305848760E+02 0.93580415666E+02 0.14225295927E+03
 0.19813922149E+03 0.24504476340E+03 0.27303662355E+03 0.28177737533E+03 0.27303662355E+03
 0.24504476340E+03 0.19813922149E+03 0.14225295927E+03 0.93580415666E+02 0.59305848760E+02
 0.36977953448E+02 0.22877265228E+02 0.14139155268E+02 0.88748921696E+01 0.58102231987E+01
 0.39587101497E+01 0.27434023490E+01 0.20266784818E+01 0.17011427418E+01 0.16044935037E+01
 0.16455020290E+01 0.26094670227E+01 0.25840619929E+01 0.25478931254E+01 0.25746554612E+01
 0.27434023490E+01 0.31570713053E+01 0.39185103916E+01 0.51961720775E+01 0.73764370783E+01
 0.11128935379E+02 0.17364969702E+02 0.27234457014E+02 0.42184144827E+02 0.63920370879E+02
 0.93580415666E+02 0.12958920717E+03 0.16513355361E+03 0.19042015478E+03 0.19943326135E+03
 0.19042015478E+03 0.16513355361E+03 0.12958920717E+03 0.93580415666E+02 0.63920370879E+02
 0.42184144827E+02 0.27234457014E+02 0.17364969702E+02 0.11128935379E+02 0.73764370783E+01
 0.51961720775E+01 0.39185103916E+01 0.31570713053E+01 0.27434023490E+01 0.25746554612E+01
 0.25478931254E+01 0.25840619929E+01 0.47250548618E+01 0.46418052487E+01 0.44273106411E+01
 0.41656465681E+01 0.39587101497E+01 0.39185103916E+01 0.41682913382E+01 0.48547850046E+01
 0.62180126870E+01 0.86692957924E+01 0.12801791670E+02 0.19314668098E+02 0.28909456099E+02
 0.42184144827E+02 0.59305848760E+02 0.79228193992E+02 0.98924575837E+02 0.11374090963E+03
 0.11928339472E+03 0.11374090963E+03 0.98924575837E+02 0.79228193992E+02 0.59305848760E+02
 0.42184144827E+02 0.28909456099E+02 0.19314668098E+02 0.12801791670E+02 0.86692957924E+01
 0.62180126870E+01 0.48547850046E+01 0.41682913382E+01 0.39185103916E+01 0.39587101497E+01
 0.41656465681E+01 0.44273106411E+01 0.46418052487E+01 0.78619197952E+01 0.76903357525E+01
 0.72143708228E+01 0.65385444107E+01 0.58102231987E+01 0.51961720775E+01 0.48547850046E+01
 0.49211668356E+01 0.55381245315E+01 0.69246307545E+01 0.94179090669E+01 0.13428413077E+02
 0.19314668098E+02 0.27234457014E+02 0.36977953448E+02 0.47739310816E+02 0.57934635945E+02
 0.65399162389E+02 0.68157134858E+02 0.65399162389E+02 0.57934635945E+02 0.47739310816E+02
 0.36977953448E+02 0.27234457014E+02 0.19314668098E+02 0.13428413077E+02 0.94179090669E+01
 0.69246307545E+01 0.55381245315E+01 0.49211668356E+01 0.48547850046E+01 0.51961720775E+01
 0.58102231987E+01 0.65385444107E+01 0.72143708228E+01 0.76903357525E+01 0.13317609641E+02
 0.12954261099E+02 0.11942257015E+02 0.10489912554E+02 0.88748921696E+01 0.73764370783E+01
 0.62180126870E+01 0.55381245315E+01 0.54110586510E+01 0.59125136958E+01 0.71813011861E+01
 0.94179090669E+01 0.12801791670E+02 0.17364969702E+02 0.22877265228E+02 0.28776640662E+02
 0.34177636953E+02 0.38025264475E+02 0.39426024967E+02 0.38025264475E+02 0.34177636953E+02
 0.28776640662E+02 0.22877265228E+02 0.17364969702E+02 0.12801791670E+02 0.94179090669E+01
 0.71813011861E+01 0.59125136958E+01 0.54110586510E+01 0.55381245315E+01 0.62180126870E+01
 0.73764370783E+01 0.88748921696E+01 0.10489912554E+02 0.11942257015E+02 0.12954261099E+02