unknown system                          
   1.00000000000000     
     0.000000    2.775115    2.775115
     2.775115    0.000000    2.775115
     2.775115    2.775115    0.000000
   Ag   Cl
     1     1
Direct
  0.000000  0.000000  0.000000
  0.500000  0.500000  0.500000
 
   36   36   36
 0.34189913749E+03 0.32909125697E+03 0.29448537618E+03 0.24704114302E+03 0.19578362641E+03
 0.14661409818E+03 0.10273150182E+03 0.66485715448E+02 0.39842288173E+02 0.23179585846E+02
 0.14291900099E+02 0.92587655631E+01 0.61537783676E+01 0.43715504737E+01 0.33572090897E+01
 0.27553312005E+01 0.23909036713E+01 0.21922928768E+01 0.21293664790E+01 0.21922928768E+01
 0.23909036713E+01 0.27553312005E+01 0.33572090897E+01 0.43715504737E+01 0.61537783676E+01
 0.92587655631E+01 0.14291900099E+02 0.23179585846E+02 0.39842288173E+02 0.66485715448E+02
 0.10273150182E+03 0.14661409818E+03 0.19578362641E+03 0.24704114302E+03 0.29448537618E+03
 0.32909125697E+03 0.32909125697E+03 0.30543103602E+03 0.26469868263E+03 0.21600036409E+03
 0.16664106765E+03 0.12089681141E+03 0.81441750536E+02 0.50571200401E+02 0.29622324860E+02
 0.17662493787E+02 0.11327843818E+02 0.74086809407E+01 0.50920829556E+01 0.37776947013E+01
 0.30146961397E+01 0.25524967787E+01 0.22805451305E+01 0.21541372674E+01 0.21541500231E+01
 0.22805695751E+01 0.25525107056E+01 0.30146983029E+01 0.37777012548E+01 0.50920981415E+01
 0.74086880695E+01 0.11327831239E+02 0.17662475496E+02 0.29622321825E+02 0.50571208430E+02
 0.81441743403E+02 0.12089677793E+03 0.16664103199E+03 0.21600036152E+03 0.26469872074E+03
 0.30543108599E+03 0.32909127949E+03 0.29448537618E+03 0.26469868263E+03 0.22328346345E+03
 0.17768979208E+03 0.13316862482E+03 0.93061766771E+02 0.60022250330E+02 0.36039689116E+02
 0.21284411244E+02 0.13408751840E+02 0.87617038858E+01 0.59029244864E+01 0.42597588385E+01
 0.33180734674E+01 0.27548727780E+01 0.24122973841E+01 0.22254341818E+01 0.21662669103E+01
 0.22254492676E+01 0.24123118653E+01 0.27548759713E+01 0.33180694877E+01 0.42597538313E+01
 0.59029174169E+01 0.87616980485E+01 0.13408762607E+02 0.21284445291E+02 0.36039720922E+02
 0.60022240128E+02 0.93061708053E+02 0.13316855877E+03 0.17768976515E+03 0.22328348174E+03
 0.26469871678E+03 0.29448539822E+03 0.30543108599E+03 0.24704114302E+03 0.21600036409E+03
 0.17768979208E+03 0.13751274262E+03 0.99415991172E+02 0.66497776467E+02 0.41229222597E+02
 0.24616389456E+02 0.15322082768E+02 0.10067046192E+02 0.67342957712E+01 0.47712079132E+01
 0.36461867002E+01 0.29824935608E+01 0.25754318038E+01 0.23349331812E+01 0.22232342582E+01
 0.22232244682E+01 0.23349180790E+01 0.25754301341E+01 0.29824963687E+01 0.36461715255E+01
 0.47711784129E+01 0.67342836568E+01 0.10067070475E+02 0.15322126116E+02 0.24616422168E+02
 0.41229233905E+02 0.66497770901E+02 0.99415968212E+02 0.13751269854E+03 0.17768973744E+03
 0.21600032146E+03 0.24704112367E+03 0.26469871678E+03 0.26469872074E+03 0.19578362641E+03
 0.16664106765E+03 0.13316862482E+03 0.99415991172E+02 0.68799815584E+02 0.44130006462E+02
 0.26980269700E+02 0.16849791508E+02 0.11157239843E+02 0.74904623879E+01 0.52634585377E+01
 0.39725602338E+01 0.32163941152E+01 0.27543109703E+01 0.24704671173E+01 0.23157679215E+01
 0.22669386140E+01 0.23157447031E+01 0.24704504082E+01 0.27543163073E+01 0.32164038525E+01
 0.39725557686E+01 0.52634482826E+01 0.74904625924E+01 0.11157246248E+02 0.16849791800E+02
 0.26980272625E+02 0.44130031361E+02 0.68799852806E+02 0.99415998410E+02 0.13316857427E+03
 0.16664098056E+03 0.19578354907E+03 0.21600032146E+03 0.22328348174E+03 0.21600036152E+03
 0.14661409818E+03 0.12089681141E+03 0.93061766771E+02 0.66497776467E+02 0.44130006462E+02
 0.27836058939E+02 0.17709109653E+02 0.11880670279E+02 0.80684845893E+01 0.56772847409E+01
 0.42642436009E+01 0.34348908178E+01 0.29312175918E+01 0.26171379468E+01 0.24316629061E+01
 0.23462203032E+01 0.23462236728E+01 0.24316649664E+01 0.26171327976E+01 0.29312202291E+01
 0.34349140875E+01 0.42642672810E+01 0.56772760720E+01 0.80684485037E+01 0.11880649233E+02
 0.17709124623E+02 0.27836079396E+02 0.44129997394E+02 0.66497749641E+02 0.93061755036E+02
 0.12089680990E+03 0.14661407190E+03 0.16664098056E+03 0.17768973744E+03 0.17768976515E+03
 0.16664103199E+03 0.10273150182E+03 0.81441750536E+02 0.60022250330E+02 0.41229222597E+02
 0.26980269700E+02 0.17709109653E+02 0.12133904227E+02 0.83819348530E+01 0.59544212514E+01
 0.44856130692E+01 0.36146507665E+01 0.30872295846E+01 0.27578406618E+01 0.25558073936E+01
 0.24474868087E+01 0.24137986705E+01 0.24474939444E+01 0.25558073729E+01 0.27578326440E+01
 0.30872313828E+01 0.36146678914E+01 0.44856228248E+01 0.59544046939E+01 0.83819095178E+01
 0.12133900882E+02 0.17709122690E+02 0.26980259767E+02 0.41229173788E+02 0.60022198384E+02
 0.81441738647E+02 0.10273152887E+03 0.12089680990E+03 0.13316857427E+03 0.13751269854E+03
 0.13316855877E+03 0.12089677793E+03 0.66485715448E+02 0.50571200401E+02 0.36039689116E+02
 0.24616389456E+02 0.16849791508E+02 0.11880670279E+02 0.83819348530E+01 0.60520255320E+01
 0.46054634656E+01 0.37335254999E+01 0.32040104722E+01 0.28747070771E+01 0.26706264343E+01
 0.25539098702E+01 0.25020340426E+01 0.25020177735E+01 0.25538829477E+01 0.26706199574E+01
 0.28747158120E+01 0.32040102281E+01 0.37335172818E+01 0.46054651416E+01 0.60520296932E+01
 0.83819151236E+01 0.11880632061E+02 0.16849775314E+02 0.24616408155E+02 0.36039698388E+02
 0.50571161672E+02 0.66485661380E+02 0.81441738647E+02 0.93061755036E+02 0.99415998410E+02
 0.99415968212E+02 0.93061708053E+02 0.81441743403E+02 0.39842288173E+02 0.29622324860E+02
 0.21284411244E+02 0.15322082768E+02 0.11157239843E+02 0.80684845893E+01 0.59544212514E+01
 0.46054634656E+01 0.37751641590E+01 0.32666339311E+01 0.29520234765E+01 0.27587421585E+01
 0.26470208828E+01 0.25917183835E+01 0.25755113720E+01 0.25916968749E+01 0.26470060472E+01
 0.27587489892E+01 0.29520360888E+01 0.32666347275E+01 0.37751579474E+01 0.46054602274E+01
 0.59544144996E+01 0.80684652913E+01 0.11157220228E+02 0.15322084106E+02 0.21284430643E+02
 0.29622332874E+02 0.39842263398E+02 0.50571161672E+02 0.60022198384E+02 0.66497749641E+02
 0.68799852806E+02 0.66497770901E+02 0.60022240128E+02 0.50571208430E+02 0.23179585846E+02
 0.17662493787E+02 0.13408751840E+02 0.10067046192E+02 0.74904623879E+01 0.56772847409E+01
 0.44856130692E+01 0.37335254999E+01 0.32666339311E+01 0.29790664069E+01 0.28065263459E+01
 0.27103883686E+01 0.26640115480E+01 0.26469513930E+01 0.26469634986E+01 0.26640316567E+01
 0.27103927748E+01 0.28065185596E+01 0.29790672326E+01 0.32666460205E+01 0.37335333378E+01
 0.44856163669E+01 0.56773020569E+01 0.74904911356E+01 0.10067050141E+02 0.13408711951E+02
 0.17662446349E+02 0.23179575713E+02 0.29622332874E+02 0.36039698388E+02 0.41229173788E+02
 0.44129997394E+02 0.44130031361E+02 0.41229233905E+02 0.36039720922E+02 0.29622321825E+02
 0.14291900099E+02 0.11327843818E+02 0.87617038858E+01 0.67342957712E+01 0.52634585377E+01
 0.42642436009E+01 0.36146507665E+01 0.32040104722E+01 0.29520234765E+01 0.28065263459E+01
 0.27328405226E+01 0.27042132123E+01 0.26980812524E+01 0.26980770929E+01 0.26980943467E+01
 0.27042289380E+01 0.27328465340E+01 0.28065199055E+01 0.29520148013E+01 0.32040136778E+01
 0.36146730527E+01 0.42642822663E+01 0.52635014370E+01 0.67343222387E+01 0.87616954459E+01
 0.11327803576E+02 0.14291854079E+02 0.17662446349E+02 0.21284430643E+02 0.24616408155E+02
 0.26980259767E+02 0.27836079396E+02 0.26980272625E+02 0.24616422168E+02 0.21284445291E+02
 0.17662475496E+02 0.92587655631E+01 0.74086809407E+01 0.59029244864E+01 0.47712079132E+01
 0.39725602338E+01 0.34348908178E+01 0.30872295846E+01 0.28747070771E+01 0.27587421585E+01
 0.27103883686E+01 0.27042132123E+01 0.27165959404E+01 0.27282569754E+01 0.27282459766E+01
 0.27165866694E+01 0.27042344151E+01 0.27104179011E+01 0.27587333715E+01 0.28746597279E+01
 0.30871951943E+01 0.34349057491E+01 0.39726069295E+01 0.47712511119E+01 0.59029548000E+01
 0.74087036527E+01 0.92587708164E+01 0.11327803576E+02 0.13408711951E+02 0.15322084106E+02
 0.16849775314E+02 0.17709122690E+02 0.17709124623E+02 0.16849791800E+02 0.15322126116E+02
 0.13408762607E+02 0.11327831239E+02 0.61537783676E+01 0.50920829556E+01 0.42597588385E+01
 0.36461867002E+01 0.32163941152E+01 0.29312175918E+01 0.27578406618E+01 0.26706264343E+01
 0.26470208828E+01 0.26640115480E+01 0.26980812524E+01 0.27282569754E+01 0.27400399494E+01
 0.27282691990E+01 0.26981064191E+01 0.26640335223E+01 0.26470098732E+01 0.26705723132E+01
 0.27577734737E+01 0.29311820226E+01 0.32164067490E+01 0.36462275482E+01 0.42598006931E+01
 0.50921160807E+01 0.61538043949E+01 0.74087036527E+01 0.87616954459E+01 0.10067050141E+02
 0.11157220228E+02 0.11880632061E+02 0.12133900882E+02 0.11880649233E+02 0.11157246248E+02
 0.10067070475E+02 0.87616980485E+01 0.74086880695E+01 0.43715504737E+01 0.37776947013E+01
 0.33180734674E+01 0.29824935608E+01 0.27543109703E+01 0.26171379468E+01 0.25558073936E+01
 0.25539098702E+01 0.25917183835E+01 0.26469513930E+01 0.26980770929E+01 0.27282459766E+01
 0.27282691990E+01 0.26981183179E+01 0.26469587118E+01 0.25916745305E+01 0.25538466740E+01
 0.25557685992E+01 0.26171392725E+01 0.27543340379E+01 0.29825081466E+01 0.33180642572E+01
 0.37776727497E+01 0.43715411199E+01 0.50921160807E+01 0.59029548000E+01 0.67343222387E+01
 0.74904911356E+01 0.80684652913E+01 0.83819151236E+01 0.83819095178E+01 0.80684485037E+01
 0.74904625924E+01 0.67342836568E+01 0.59029174169E+01 0.50920981415E+01 0.33572090897E+01
 0.30146961397E+01 0.27548727780E+01 0.25754318038E+01 0.24704671173E+01 0.24316629061E+01
 0.24474868087E+01 0.25020340426E+01 0.25755113720E+01 0.26469634986E+01 0.26980943467E+01
 0.27165866694E+01 0.26981064191E+01 0.26469587118E+01 0.25754711999E+01 0.25019782919E+01
 0.24474592754E+01 0.24316930741E+01 0.24705402408E+01 0.25754899227E+01 0.27548573572E+01
 0.30146067482E+01 0.33571137181E+01 0.37776727497E+01 0.42598006931E+01 0.47712511119E+01
 0.52635014370E+01 0.56773020569E+01 0.59544144996E+01 0.60520296932E+01 0.59544046939E+01
 0.56772760720E+01 0.52634482826E+01 0.47711784129E+01 0.42597538313E+01 0.37777012548E+01
 0.27553312005E+01 0.25524967787E+01 0.24122973841E+01 0.23349331812E+01 0.23157679215E+01
 0.23462203032E+01 0.24137986705E+01 0.25020177735E+01 0.25916968749E+01 0.26640316567E+01
 0.27042289380E+01 0.27042344151E+01 0.26640335223E+01 0.25916745305E+01 0.25019782919E+01
 0.24137743744E+01 0.23462413187E+01 0.23158398839E+01 0.23350236336E+01 0.24123415196E+01
 0.25524465840E+01 0.27552149900E+01 0.30146067482E+01 0.33180642572E+01 0.36462275482E+01
 0.39726069295E+01 0.42642822663E+01 0.44856163669E+01 0.46054602274E+01 0.46054651416E+01
 0.44856228248E+01 0.42642672810E+01 0.39725557686E+01 0.36461715255E+01 0.33180694877E+01
 0.30146983029E+01 0.23909036713E+01 0.22805451305E+01 0.22254341818E+01 0.22232342582E+01
 0.22669386140E+01 0.23462236728E+01 0.24474939444E+01 0.25538829477E+01 0.26470060472E+01
 0.27103927748E+01 0.27328465340E+01 0.27104179011E+01 0.26470098732E+01 0.25538466740E+01
 0.24474592754E+01 0.23462413187E+01 0.22670130832E+01 0.22233255871E+01 0.22254900886E+01
 0.22805327993E+01 0.23908371906E+01 0.25524465840E+01 0.27548573572E+01 0.29825081466E+01
 0.32164067490E+01 0.34349057491E+01 0.36146730527E+01 0.37335333378E+01 0.37751579474E+01
 0.37335172818E+01 0.36146678914E+01 0.34349140875E+01 0.32164038525E+01 0.29824963687E+01
 0.27548759713E+01 0.25525107056E+01 0.21922928768E+01 0.21541372674E+01 0.21662669103E+01
 0.22232244682E+01 0.23157447031E+01 0.24316649664E+01 0.25558073729E+01 0.26706199574E+01
 0.27587489892E+01 0.28065185596E+01 0.28065199055E+01 0.27587333715E+01 0.26705723132E+01
 0.25557685992E+01 0.24316930741E+01 0.23158398839E+01 0.22233255871E+01 0.21663118486E+01
 0.21541092596E+01 0.21922278358E+01 0.22805327993E+01 0.24123415196E+01 0.25754899227E+01
 0.27543340379E+01 0.29311820226E+01 0.30871951943E+01 0.32040136778E+01 0.32666460205E+01
 0.32666347275E+01 0.32040102281E+01 0.30872313828E+01 0.29312202291E+01 0.27543163073E+01
 0.25754301341E+01 0.24123118653E+01 0.22805695751E+01 0.21293664790E+01 0.21541500231E+01
 0.22254492676E+01 0.23349180790E+01 0.24704504082E+01 0.26171327976E+01 0.27578326440E+01
 0.28747158120E+01 0.29520360888E+01 0.29790672326E+01 0.29520148013E+01 0.28746597279E+01
 0.27577734737E+01 0.26171392725E+01 0.24705402408E+01 0.23350236336E+01 0.22254900886E+01
 0.21541092596E+01 0.21292911705E+01 0.21541092596E+01 0.22254900886E+01 0.23350236336E+01
 0.24705402408E+01 0.26171392725E+01 0.27577734737E+01 0.28746597279E+01 0.29520148013E+01
 0.29790672326E+01 0.29520360888E+01 0.28747158120E+01 0.27578326440E+01 0.26171327976E+01
 0.24704504082E+01 0.23349180790E+01 0.22254492676E+01 0.21541500231E+01 0.21922928768E+01
 0.22805695751E+01 0.24123118653E+01 0.25754301341E+01 0.27543163073E+01 0.29312202291E+01
 0.30872313828E+01 0.32040102281E+01 0.32666347275E+01 0.32666460205E+01 0.32040136778E+01
 0.30871951943E+01 0.29311820226E+01 0.27543340379E+01 0.25754899227E+01 0.24123415196E+01
 0.22805327993E+01 0.21922278358E+01 0.21541092596E+01 0.21663118486E+01 0.22233255871E+01
 0.23158398839E+01 0.24316930741E+01 0.25557685992E+01 0.26705723132E+01 0.27587333715E+01
 0.28065199055E+01 0.28065185596E+01 0.27587489892E+01 0.26706199574E+01 0.25558073729E+01
 0.24316649664E+01 0.23157447031E+01 0.22232244682E+01 0.21662669103E+01 0.21541372674E+01
 0.23909036713E+01 0.25525107056E+01 0.27548759713E+01 0.29824963687E+01 0.32164038525E+01
 0.34349140875E+01 0.36146678914E+01 0.37335172818E+01 0.37751579474E+01 0.37335333378E+01
 0.36146730527E+01 0.34349057491E+01 0.32164067490E+01 0.29825081466E+01 0.27548573572E+01
 0.25524465840E+01 0.23908371906E+01 0.22805327993E+01 0.22254900886E+01 0.22233255871E+01
 0.22670130832E+01 0.23462413187E+01 0.24474592754E+01 0.25538466740E+01 0.26470098732E+01
 0.27104179011E+01 0.27328465340E+01 0.27103927748E+01 0.26470060472E+01 0.25538829477E+01
 0.24474939444E+01 0.23462236728E+01 0.22669386140E+01 0.22232342582E+01 0.22254341818E+01
 0.22805451305E+01 0.27553312005E+01 0.30146983029E+01 0.33180694877E+01 0.36461715255E+01
 0.39725557686E+01 0.42642672810E+01 0.44856228248E+01 0.46054651416E+01 0.46054602274E+01
 0.44856163669E+01 0.42642822663E+01 0.39726069295E+01 0.36462275482E+01 0.33180642572E+01
 0.30146067482E+01 0.27552149900E+01 0.25524465840E+01 0.24123415196E+01 0.23350236336E+01
 0.23158398839E+01 0.23462413187E+01 0.24137743744E+01 0.25019782919E+01 0.25916745305E+01
 0.26640335223E+01 0.27042344151E+01 0.27042289380E+01 0.26640316567E+01 0.25916968749E+01
 0.25020177735E+01 0.24137986705E+01 0.23462203032E+01 0.23157679215E+01 0.23349331812E+01
 0.24122973841E+01 0.25524967787E+01 0.33572090897E+01 0.37777012548E+01 0.42597538313E+01
 0.47711784129E+01 0.52634482826E+01 0.56772760720E+01 0.59544046939E+01 0.60520296932E+01
 0.59544144996E+01 0.56773020569E+01 0.52635014370E+01 0.47712511119E+01 0.42598006931E+01
 0.37776727497E+01 0.33571137181E+01 0.30146067482E+01 0.27548573572E+01 0.25754899227E+01
 0.24705402408E+01 0.24316930741E+01 0.24474592754E+01 0.25019782919E+01 0.25754711999E+01
 0.26469587118E+01 0.26981064191E+01 0.27165866694E+01 0.26980943467E+01 0.26469634986E+01
 0.25755113720E+01 0.25020340426E+01 0.24474868087E+01 0.24316629061E+01 0.24704671173E+01
 0.25754318038E+01 0.27548727780E+01 0.30146961397E+01 0.43715504737E+01 0.50920981415E+01
 0.59029174169E+01 0.67342836568E+01 0.74904625924E+01 0.80684485037E+01 0.83819095178E+01
 0.83819151236E+01 0.80684652913E+01 0.74904911356E+01 0.67343222387E+01 0.59029548000E+01
 0.50921160807E+01 0.43715411199E+01 0.37776727497E+01 0.33180642572E+01 0.29825081466E+01
 0.27543340379E+01 0.26171392725E+01 0.25557685992E+01 0.25538466740E+01 0.25916745305E+01
 0.26469587118E+01 0.26981183179E+01 0.27282691990E+01 0.27282459766E+01 0.26980770929E+01
 0.26469513930E+01 0.25917183835E+01 0.25539098702E+01 0.25558073936E+01 0.26171379468E+01
 0.27543109703E+01 0.29824935608E+01 0.33180734674E+01 0.37776947013E+01 0.61537783676E+01
 0.74086880695E+01 0.87616980485E+01 0.10067070475E+02 0.11157246248E+02 0.11880649233E+02
 0.12133900882E+02 0.11880632061E+02 0.11157220228E+02 0.10067050141E+02 0.87616954459E+01
 0.74087036527E+01 0.61538043949E+01 0.50921160807E+01 0.42598006931E+01 0.36462275482E+01
 0.32164067490E+01 0.29311820226E+01 0.27577734737E+01 0.26705723132E+01 0.26470098732E+01
 0.26640335223E+01 0.26981064191E+01 0.27282691990E+01 0.27400399494E+01 0.27282569754E+01
 0.26980812524E+01 0.26640115480E+01 0.26470208828E+01 0.26706264343E+01 0.27578406618E+01
 0.29312175918E+01 0.32163941152E+01 0.36461867002E+01 0.42597588385E+01 0.50920829556E+01
 0.92587655631E+01 0.11327831239E+02 0.13408762607E+02 0.15322126116E+02 0.16849791800E+02
 0.17709124623E+02 0.17709122690E+02 0.16849775314E+02 0.15322084106E+02 0.13408711951E+02
 0.11327803576E+02 0.92587708164E+01 0.74087036527E+01 0.59029548000E+01 0.47712511119E+01
 0.39726069295E+01 0.34349057491E+01 0.30871951943E+01 0.28746597279E+01 0.27587333715E+01
 0.27104179011E+01 0.27042344151E+01 0.27165866694E+01 0.27282459766E+01 0.27282569754E+01
 0.27165959404E+01 0.27042132123E+01 0.27103883686E+01 0.27587421585E+01 0.28747070771E+01
 0.30872295846E+01 0.34348908178E+01 0.39725602338E+01 0.47712079132E+01 0.59029244864E+01
 0.74086809407E+01 0.14291900099E+02 0.17662475496E+02 0.21284445291E+02 0.24616422168E+02
 0.26980272625E+02 0.27836079396E+02 0.26980259767E+02 0.24616408155E+02 0.21284430643E+02
 0.17662446349E+02 0.14291854079E+02 0.11327803576E+02 0.87616954459E+01 0.67343222387E+01
 0.52635014370E+01 0.42642822663E+01 0.36146730527E+01 0.32040136778E+01 0.29520148013E+01
 0.28065199055E+01 0.27328465340E+01 0.27042289380E+01 0.26980943467E+01 0.26980770929E+01
 0.26980812524E+01 0.27042132123E+01 0.27328405226E+01 0.28065263459E+01 0.29520234765E+01
 0.32040104722E+01 0.36146507665E+01 0.42642436009E+01 0.52634585377E+01 0.67342957712E+01
 0.87617038858E+01 0.11327843818E+02 0.23179585846E+02 0.29622321825E+02 0.36039720922E+02
 0.41229233905E+02 0.44130031361E+02 0.44129997394E+02 0.41229173788E+02 0.36039698388E+02
 0.29622332874E+02 0.23179575713E+02 0.17662446349E+02 0.13408711951E+02 0.10067050141E+02
 0.74904911356E+01 0.56773020569E+01 0.44856163669E+01 0.37335333378E+01 0.32666460205E+01
 0.29790672326E+01 0.28065185596E+01 0.27103927748E+01 0.26640316567E+01 0.26469634986E+01
 0.26469513930E+01 0.26640115480E+01 0.27103883686E+01 0.28065263459E+01 0.29790664069E+01
 0.32666339311E+01 0.37335254999E+01 0.44856130692E+01 0.56772847409E+01 0.74904623879E+01
 0.10067046192E+02 0.13408751840E+02 0.17662493787E+02 0.39842288173E+02 0.50571208430E+02
 0.60022240128E+02 0.66497770901E+02 0.68799852806E+02 0.66497749641E+02 0.60022198384E+02
 0.50571161672E+02 0.39842263398E+02 0.29622332874E+02 0.21284430643E+02 0.15322084106E+02
 0.11157220228E+02 0.80684652913E+01 0.59544144996E+01 0.46054602274E+01 0.37751579474E+01
 0.32666347275E+01 0.29520360888E+01 0.27587489892E+01 0.26470060472E+01 0.25916968749E+01
 0.25755113720E+01 0.25917183835E+01 0.26470208828E+01 0.27587421585E+01 0.29520234765E+01
 0.32666339311E+01 0.37751641590E+01 0.46054634656E+01 0.59544212514E+01 0.80684845893E+01
 0.11157239843E+02 0.15322082768E+02 0.21284411244E+02 0.29622324860E+02 0.66485715448E+02
 0.81441743403E+02 0.93061708053E+02 0.99415968212E+02 0.99415998410E+02 0.93061755036E+02
 0.81441738647E+02 0.66485661380E+02 0.50571161672E+02 0.36039698388E+02 0.24616408155E+02
 0.16849775314E+02 0.11880632061E+02 0.83819151236E+01 0.60520296932E+01 0.46054651416E+01
 0.37335172818E+01 0.32040102281E+01 0.28747158120E+01 0.26706199574E+01 0.25538829477E+01
 0.25020177735E+01 0.25020340426E+01 0.25539098702E+01 0.26706264343E+01 0.28747070771E+01
 0.32040104722E+01 0.37335254999E+01 0.46054634656E+01 0.60520255320E+01 0.83819348530E+01
 0.11880670279E+02 0.16849791508E+02 0.24616389456E+02 0.36039689116E+02 0.50571200401E+02
 0.10273150182E+03 0.12089677793E+03 0.13316855877E+03 0.13751269854E+03 0.13316857427E+03
 0.12089680990E+03 0.10273152887E+03 0.81441738647E+02 0.60022198384E+02 0.41229173788E+02
 0.26980259767E+02 0.17709122690E+02 0.12133900882E+02 0.83819095178E+01 0.59544046939E+01
 0.44856228248E+01 0.36146678914E+01 0.30872313828E+01 0.27578326440E+01 0.25558073729E+01
 0.24474939444E+01 0.24137986705E+01 0.24474868087E+01 0.25558073936E+01 0.27578406618E+01
 0.30872295846E+01 0.36146507665E+01 0.44856130692E+01 0.59544212514E+01 0.83819348530E+01
 0.12133904227E+02 0.17709109653E+02 0.26980269700E+02 0.41229222597E+02 0.60022250330E+02
 0.81441750536E+02 0.14661409818E+03 0.16664103199E+03 0.17768976515E+03 0.17768973744E+03
 0.16664098056E+03 0.14661407190E+03 0.12089680990E+03 0.93061755036E+02 0.66497749641E+02
 0.44129997394E+02 0.27836079396E+02 0.17709124623E+02 0.11880649233E+02 0.80684485037E+01
 0.56772760720E+01 0.42642672810E+01 0.34349140875E+01 0.29312202291E+01 0.26171327976E+01
 0.24316649664E+01 0.23462236728E+01 0.23462203032E+01 0.24316629061E+01 0.26171379468E+01
 0.29312175918E+01 0.34348908178E+01 0.42642436009E+01 0.56772847409E+01 0.80684845893E+01
 0.11880670279E+02 0.17709109653E+02 0.27836058939E+02 0.44130006462E+02 0.66497776467E+02
 0.93061766771E+02 0.12089681141E+03 0.19578362641E+03 0.21600036152E+03 0.22328348174E+03
 0.21600032146E+03 0.19578354907E+03 0.16664098056E+03 0.13316857427E+03 0.99415998410E+02
 0.68799852806E+02 0.44130031361E+02 0.26980272625E+02 0.16849791800E+02 0.11157246248E+02
 0.74904625924E+01 0.52634482826E+01 0.39725557686E+01 0.32164038525E+01 0.27543163073E+01
 0.24704504082E+01 0.23157447031E+01 0.22669386140E+01 0.23157679215E+01 0.24704671173E+01
 0.27543109703E+01 0.32163941152E+01 0.39725602338E+01 0.52634585377E+01 0.74904623879E+01
 0.11157239843E+02 0.16849791508E+02 0.26980269700E+02 0.44130006462E+02 0.68799815584E+02
 0.99415991172E+02 0.13316862482E+03 0.16664106765E+03 0.24704114302E+03 0.26469872074E+03
 0.26469871678E+03 0.24704112367E+03 0.21600032146E+03 0.17768973744E+03 0.13751269854E+03
 0.99415968212E+02 0.66497770901E+02 0.41229233905E+02 0.24616422168E+02 0.15322126116E+02
 0.10067070475E+02 0.67342836568E+01 0.47711784129E+01 0.36461715255E+01 0.29824963687E+01
 0.25754301341E+01 0.23349180790E+01 0.22232244682E+01 0.22232342582E+01 0.23349331812E+01
 0.25754318038E+01 0.29824935608E+01 0.36461867002E+01 0.47712079132E+01 0.67342957712E+01
 0.10067046192E+02 0.15322082768E+02 0.24616389456E+02 0.41229222597E+02 0.66497776467E+02
 0.99415991172E+02 0.13751274262E+03 0.17768979208E+03 0.21600036409E+03 0.29448537618E+03
 0.30543108599E+03 0.29448539822E+03 0.26469871678E+03 0.22328348174E+03 0.17768976515E+03
 0.13316855877E+03 0.93061708053E+02 0.60022240128E+02 0.36039720922E+02 0.21284445291E+02
 0.13408762607E+02 0.87616980485E+01 0.59029174169E+01 0.42597538313E+01 0.33180694877E+01
 0.27548759713E+01 0.24123118653E+01 0.22254492676E+01 0.21662669103E+01 0.22254341818E+01
 0.24122973841E+01 0.27548727780E+01 0.33180734674E+01 0.42597588385E+01 0.59029244864E+01
 0.87617038858E+01 0.13408751840E+02 0.21284411244E+02 0.36039689116E+02 0.60022250330E+02
 0.93061766771E+02 0.13316862482E+03 0.17768979208E+03 0.22328346345E+03 0.26469868263E+03
 0.32909125697E+03 0.32909127949E+03 0.30543108599E+03 0.26469872074E+03 0.21600036152E+03
 0.16664103199E+03 0.12089677793E+03 0.81441743403E+02 0.50571208430E+02 0.29622321825E+02
 0.17662475496E+02 0.11327831239E+02 0.74086880695E+01 0.50920981415E+01 0.37777012548E+01
 0.30146983029E+01 0.25525107056E+01 0.22805695751E+01 0.21541500231E+01 0.21541372674E+01
 0.22805451305E+01 0.25524967787E+01 0.30146961397E+01 0.37776947013E+01 0.50920829556E+01
 0.74086809407E+01 0.11327843818E+02 0.17662493787E+02 0.29622324860E+02 0.50571200401E+02
 0.81441750536E+02 0.12089681141E+03 0.16664106765E+03 0.21600036409E+03 0.26469868263E+03
 0.30543103602E+03 0.32909125741E+03 0.30543103663E+03 0.26469868297E+03 0.21600036419E+03
 0.16664106773E+03 0.12089681131E+03 0.81441749959E+02 0.50571199440E+02 0.29622323810E+02
 0.17662492782E+02 0.11327843205E+02 0.74086816542E+01 0.50920858221E+01 0.37776994465E+01
 0.30147014585E+01 0.25525010960E+01 0.22805469642E+01 0.21541354949E+01 0.21541447001E+01
 0.22805624056E+01 0.25525041012E+01 0.30146939515E+01 0.37776997234E+01 0.50920992392E+01
 0.74086909185E+01 0.11327834382E+02 0.17662477742E+02 0.29622323007E+02 0.50571208972E+02
 0.81441743499E+02 0.12089677760E+03 0.16664103152E+03 0.21600036123E+03 0.26469872058E+03
 0.30543108579E+03 0.32909127949E+03 0.30543103663E+03 0.27408556295E+03 0.23072945076E+03
 0.18332859862E+03 0.13734374708E+03 0.96062224844E+02 0.62027552354E+02 0.37213471406E+02
 0.21856664001E+02 0.13660039827E+02 0.88832220801E+01 0.59375117816E+01 0.42425133346E+01
 0.32711651466E+01 0.26902395448E+01 0.23366012534E+01 0.21434247611E+01 0.20821938195E+01
 0.21434584275E+01 0.23366314437E+01 0.26902437398E+01 0.32711641984E+01 0.42425349120E+01
 0.59375418846E+01 0.88832188061E+01 0.13659994467E+02 0.21856621082E+02 0.37213473013E+02
 0.62027580343E+02 0.96062222204E+02 0.13734369235E+03 0.18332853640E+03 0.23072944060E+03
 0.27408561092E+03 0.30543108872E+03 0.31698027139E+03 0.26469868297E+03 0.23072945076E+03
 0.18928051442E+03 0.14632694785E+03 0.10591095855E+03 0.71001223850E+02 0.44019787958E+02
 0.26081314169E+02 0.15979014112E+02 0.10393620222E+02 0.68612389263E+01 0.47732121151E+01
 0.35759265639E+01 0.28697674670E+01 0.24362134894E+01 0.21793330576E+01 0.20596373543E+01
 0.20596389549E+01 0.21793428243E+01 0.24362336250E+01 0.28697845701E+01 0.35759270318E+01
 0.47732019438E+01 0.68612326920E+01 0.10393617649E+02 0.15979006084E+02 0.26081306824E+02
 0.44019796434E+02 0.71001237922E+02 0.10591094014E+03 0.14632687961E+03 0.18928043362E+03
 0.23072941158E+03 0.26469869152E+03 0.28417061106E+03 0.28417059873E+03 0.21600036419E+03
 0.18332859862E+03 0.14632694785E+03 0.10938668311E+03 0.75922977816E+02 0.48734025784E+02
 0.29543710456E+02 0.18059464495E+02 0.11753830881E+02 0.77629393471E+01 0.53219283322E+01
 0.39039946392E+01 0.30732627668E+01 0.25648781870E+01 0.22512107863E+01 0.20791909646E+01
 0.20246407566E+01 0.20791753791E+01 0.22512037409E+01 0.25648857129E+01 0.30732613355E+01
 0.39039718380E+01 0.53219077388E+01 0.77629462881E+01 0.11753853977E+02 0.18059475611E+02
 0.29543709081E+02 0.48734033640E+02 0.75922991851E+02 0.10938666537E+03 0.14632687410E+03
 0.18332849485E+03 0.21600027940E+03 0.23894985180E+03 0.24727579550E+03 0.23894989311E+03
 0.16664106773E+03 0.13734374708E+03 0.10591095855E+03 0.75922977816E+02 0.50418189565E+02
 0.31496535175E+02 0.19529040672E+02 0.12780584392E+02 0.85237660129E+01 0.58239989184E+01
 0.42214333607E+01 0.32793254470E+01 0.27055001513E+01 0.23450892603E+01 0.21299189144E+01
 0.20297427276E+01 0.20297502622E+01 0.21299240127E+01 0.23450701157E+01 0.27054724523E+01
 0.32793246395E+01 0.42214610690E+01 0.58240165464E+01 0.85237482884E+01 0.12780554155E+02
 0.19529035938E+02 0.31496560243E+02 0.50418217308E+02 0.75922985501E+02 0.10591093759E+03
 0.13734368799E+03 0.16664096858E+03 0.18973503577E+03 0.20260215104E+03 0.20260219676E+03
 0.18973513985E+03 0.12089681131E+03 0.96062224844E+02 0.71001223850E+02 0.48734025784E+02
 0.31496535175E+02 0.20061337014E+02 0.13335003591E+02 0.90325665142E+01 0.62096304116E+01
 0.44889889510E+01 0.34644618662E+01 0.28402950146E+01 0.24457063148E+01 0.21991007992E+01
 0.20640867881E+01 0.20214725308E+01 0.20640927945E+01 0.21990983186E+01 0.24456967005E+01
 0.28403001278E+01 0.34644882372E+01 0.44890089561E+01 0.62096176247E+01 0.90325352740E+01
 0.13334990063E+02 0.20061348309E+02 0.31496543542E+02 0.48734013497E+02 0.71001205132E+02
 0.96062212721E+02 0.12089679102E+03 0.14217888908E+03 0.15665794286E+03 0.16180893046E+03
 0.15665798285E+03 0.14217893110E+03 0.81441749959E+02 0.62027552354E+02 0.44019787958E+02
 0.29543710456E+02 0.19529040672E+02 0.13335003591E+02 0.92113980133E+01 0.64193786027E+01
 0.46684671727E+01 0.36051925641E+01 0.29523478375E+01 0.25380065189E+01 0.22729796753E+01
 0.21154150822E+01 0.20428750249E+01 0.20428585063E+01 0.21153929582E+01 0.22729893156E+01
 0.25380341781E+01 0.29523514237E+01 0.36051701796E+01 0.46684598459E+01 0.64194041861E+01
 0.92114232394E+01 0.13334994945E+02 0.19529008547E+02 0.29543681068E+02 0.44019760481E+02
 0.62027516800E+02 0.81441728186E+02 0.99550327824E+02 0.11360122420E+03 0.12129522240E+03
 0.12129518951E+03 0.11360116289E+03 0.99550301316E+02 0.50571199440E+02 0.37213471406E+02
 0.26081314169E+02 0.18059464495E+02 0.12780584392E+02 0.90325665142E+01 0.64193786027E+01
 0.47317019420E+01 0.36813648595E+01 0.30267182910E+01 0.26085315575E+01 0.23380105683E+01
 0.21703480326E+01 0.20807191540E+01 0.20529442241E+01 0.20807100291E+01 0.21703377703E+01
 0.23380025967E+01 0.26085250335E+01 0.30267202699E+01 0.36813850689E+01 0.47317306753E+01
 0.64193877313E+01 0.90325437300E+01 0.12780551624E+02 0.18059446395E+02 0.26081301788E+02
 0.37213440281E+02 0.50571158985E+02 0.64346228471E+02 0.76344864769E+02 0.84519661915E+02
 0.87419783825E+02 0.84519609005E+02 0.76344818722E+02 0.64346234462E+02 0.29622323810E+02
 0.21856664001E+02 0.15979014112E+02 0.11753830881E+02 0.85237660129E+01 0.62096304116E+01
 0.46684671727E+01 0.36813648595E+01 0.30527573543E+01 0.26466618534E+01 0.23824160701E+01
 0.22159195576E+01 0.21210339175E+01 0.20792017435E+01 0.20792147466E+01 0.21210435063E+01
 0.22158930947E+01 0.23823886494E+01 0.26466941265E+01 0.30528365053E+01 0.36814073054E+01
 0.46684289661E+01 0.62095628319E+01 0.85237369066E+01 0.11753836075E+02 0.15979006049E+02
 0.21856635919E+02 0.29622311432E+02 0.38575190128E+02 0.47348606722E+02 0.54357349434E+02
 0.58247913785E+02 0.58247930928E+02 0.54357374773E+02 0.47348606286E+02 0.38575178722E+02
 0.17662492782E+02 0.13660039827E+02 0.10393620222E+02 0.77629393471E+01 0.58239989184E+01
 0.44889889510E+01 0.36051925641E+01 0.30267182910E+01 0.26466618534E+01 0.23981334220E+01