   1   1   1   0
  0.1357967E+03  0.5140000E-09  0.5140000E-09  0.5515397E-09  0.5000000E-15
  1.000000000000000E-004
  CAR 
 unknown system                          
      5.31461801    -11.46915567  301     -2.70651646      1.00000000
    -11.469  0.0000E+00  0.0000E+00  0.0000E+00  0.0000E+00
    -11.413  0.0000E+00  0.0000E+00  0.0000E+00  0.0000E+00
    -11.357  0.0000E+00  0.0000E+00  0.0000E+00  0.0000E+00
    -11.301  0.0000E+00  0.0000E+00  0.0000E+00  0.0000E+00
    -11.245  0.0000E+00  0.0000E+00  0.0000E+00  0.0000E+00
    -11.189  0.0000E+00  0.0000E+00  0.0000E+00  0.0000E+00
    -11.133  0.0000E+00  0.0000E+00  0.0000E+00  0.0000E+00
    -11.078 -0.4793E-28 -0.4793E-28 -0.2682E-29 -0.2682E-29
    -11.022 -0.4426E-26 -0.4426E-26 -0.2503E-27 -0.2503E-27
    -10.966 -0.3190E-24 -0.3190E-24 -0.1810E-25 -0.1810E-25
    -10.910 -0.1968E-22 -0.1968E-22 -0.1119E-23 -0.1119E-23
    -10.854 -0.1040E-20 -0.1040E-20 -0.5933E-22 -0.5933E-22
    -10.798 -0.4712E-19 -0.4712E-19 -0.2696E-20 -0.2696E-20
    -10.742 -0.1829E-17 -0.1829E-17 -0.1050E-18 -0.1050E-18
    -10.686 -0.6082E-16 -0.6082E-16 -0.3508E-17 -0.3508E-17
    -10.630 -0.1702E-14 -0.1702E-14 -0.9872E-16 -0.9872E-16
    -10.574 -0.4108E-13 -0.4108E-13 -0.2397E-14 -0.2397E-14
    -10.518 -0.8564E-12 -0.8564E-12 -0.5031E-13 -0.5031E-13
    -10.462 -0.1531E-10 -0.1531E-10 -0.9068E-12 -0.9068E-12
    -10.406 -0.2344E-09 -0.2344E-09 -0.1402E-10 -0.1402E-10
    -10.350 -0.3072E-08 -0.3072E-08 -0.1859E-09 -0.1859E-09
    -10.294 -0.3446E-07 -0.3446E-07 -0.2114E-08 -0.2114E-08
    -10.238 -0.3306E-06 -0.3306E-06 -0.2061E-07 -0.2061E-07
    -10.182 -0.2711E-05 -0.2711E-05 -0.1723E-06 -0.1723E-06
    -10.126 -0.1898E-04 -0.1898E-04 -0.1234E-05 -0.1234E-05
    -10.071 -0.1132E-03 -0.1132E-03 -0.7566E-05 -0.7566E-05
    -10.015 -0.5738E-03 -0.5738E-03 -0.3967E-04 -0.3967E-04
     -9.959 -0.2463E-02 -0.2463E-02 -0.1774E-03 -0.1774E-03
     -9.903 -0.8896E-02 -0.8896E-02 -0.6751E-03 -0.6751E-03
     -9.847 -0.2677E-01 -0.2677E-01 -0.2173E-02 -0.2173E-02
     -9.791 -0.6595E-01 -0.6595E-01 -0.5863E-02 -0.5863E-02
     -9.735 -0.1282E+00 -0.1282E+00 -0.1303E-01 -0.1303E-01
     -9.679 -0.1783E+00 -0.1783E+00 -0.2301E-01 -0.2301E-01
     -9.623 -0.1095E+00 -0.1095E+00 -0.2914E-01 -0.2914E-01
     -9.567  0.2510E+00  0.2510E+00 -0.1510E-01 -0.1510E-01
     -9.511  0.1039E+01  0.1039E+01  0.4304E-01  0.4304E-01
     -9.455  0.2181E+01  0.2181E+01  0.1650E+00  0.1650E+00
     -9.399  0.3301E+01  0.3301E+01  0.3497E+00  0.3497E+00
     -9.343  0.3885E+01  0.3885E+01  0.5671E+00  0.5671E+00
     -9.287  0.3624E+01  0.3624E+01  0.7698E+00  0.7698E+00
     -9.231  0.2656E+01  0.2656E+01  0.9184E+00  0.9184E+00
     -9.175  0.1459E+01  0.1459E+01  0.1000E+01  0.1000E+01
     -9.119  0.5004E+00  0.5004E+00  0.1028E+01  0.1028E+01
     -9.063 -0.2080E-01 -0.2080E-01  0.1027E+01  0.1027E+01
     -9.008 -0.1794E+00 -0.1794E+00  0.1017E+01  0.1017E+01
     -8.952 -0.1552E+00 -0.1552E+00  0.1008E+01  0.1008E+01
     -8.896 -0.8827E-01 -0.8827E-01  0.1003E+01  0.1003E+01
     -8.840 -0.3853E-01 -0.3853E-01  0.1001E+01  0.1001E+01
     -8.784 -0.1358E-01 -0.1358E-01  0.1000E+01  0.1000E+01
     -8.728 -0.3953E-02 -0.3953E-02  0.1000E+01  0.1000E+01
     -8.672 -0.9623E-03 -0.9623E-03  0.1000E+01  0.1000E+01
     -8.616 -0.1973E-03 -0.1973E-03  0.1000E+01  0.1000E+01
     -8.560 -0.3421E-04 -0.3421E-04  0.1000E+01  0.1000E+01
     -8.504 -0.5036E-05 -0.5036E-05  0.1000E+01  0.1000E+01
     -8.448 -0.6303E-06 -0.6303E-06  0.1000E+01  0.1000E+01
     -8.392 -0.6718E-07 -0.6718E-07  0.1000E+01  0.1000E+01
     -8.336 -0.6105E-08 -0.6105E-08  0.1000E+01  0.1000E+01
     -8.280 -0.4733E-09 -0.4733E-09  0.1000E+01  0.1000E+01
     -8.224 -0.3133E-10 -0.3133E-10  0.1000E+01  0.1000E+01
     -8.168 -0.1771E-11 -0.1771E-11  0.1000E+01  0.1000E+01
     -8.112 -0.8579E-13 -0.8579E-13  0.1000E+01  0.1000E+01
     -8.056 -0.3556E-14 -0.3556E-14  0.1000E+01  0.1000E+01
     -8.001  0.0000E+00  0.0000E+00  0.1000E+01  0.1000E+01
     -7.945  0.0000E+00  0.0000E+00  0.1000E+01  0.1000E+01
     -7.889  0.0000E+00  0.0000E+00  0.1000E+01  0.1000E+01
     -7.833  0.0000E+00  0.0000E+00  0.1000E+01  0.1000E+01
     -7.777  0.0000E+00  0.0000E+00  0.1000E+01  0.1000E+01
     -7.721  0.0000E+00  0.0000E+00  0.1000E+01  0.1000E+01
     -7.665  0.0000E+00  0.0000E+00  0.1000E+01  0.1000E+01
     -7.609  0.0000E+00  0.0000E+00  0.1000E+01  0.1000E+01
     -7.553  0.0000E+00  0.0000E+00  0.1000E+01  0.1000E+01
     -7.497  0.0000E+00  0.0000E+00  0.1000E+01  0.1000E+01
     -7.441  0.0000E+00  0.0000E+00  0.1000E+01  0.1000E+01
     -7.385  0.0000E+00  0.0000E+00  0.1000E+01  0.1000E+01
     -7.329  0.0000E+00  0.0000E+00  0.1000E+01  0.1000E+01
     -7.273  0.0000E+00  0.0000E+00  0.1000E+01  0.1000E+01
     -7.217  0.0000E+00  0.0000E+00  0.1000E+01  0.1000E+01
     -7.161  0.0000E+00  0.0000E+00  0.1000E+01  0.1000E+01
     -7.105  0.0000E+00  0.0000E+00  0.1000E+01  0.1000E+01
     -7.049  0.0000E+00  0.0000E+00  0.1000E+01  0.1000E+01
     -6.993  0.0000E+00  0.0000E+00  0.1000E+01  0.1000E+01
     -6.938  0.0000E+00  0.0000E+00  0.1000E+01  0.1000E+01
     -6.882  0.0000E+00  0.0000E+00  0.1000E+01  0.1000E+01
     -6.826  0.0000E+00  0.0000E+00  0.1000E+01  0.1000E+01
     -6.770  0.0000E+00  0.0000E+00  0.1000E+01  0.1000E+01
     -6.714  0.0000E+00  0.0000E+00  0.1000E+01  0.1000E+01
     -6.658  0.0000E+00  0.0000E+00  0.1000E+01  0.1000E+01
     -6.602  0.0000E+00  0.0000E+00  0.1000E+01  0.1000E+01
     -6.546  0.0000E+00  0.0000E+00  0.1000E+01  0.1000E+01
     -6.490  0.0000E+00  0.0000E+00  0.1000E+01  0.1000E+01
     -6.434  0.0000E+00  0.0000E+00  0.1000E+01  0.1000E+01
     -6.378  0.0000E+00  0.0000E+00  0.1000E+01  0.1000E+01
     -6.322  0.0000E+00  0.0000E+00  0.1000E+01  0.1000E+01
     -6.266  0.0000E+00  0.0000E+00  0.1000E+01  0.1000E+01
     -6.210  0.0000E+00  0.0000E+00  0.1000E+01  0.1000E+01
     -6.154  0.0000E+00  0.0000E+00  0.1000E+01  0.1000E+01
     -6.098  0.0000E+00  0.0000E+00  0.1000E+01  0.1000E+01
     -6.042  0.0000E+00  0.0000E+00  0.1000E+01  0.1000E+01
     -5.986  0.0000E+00  0.0000E+00  0.1000E+01  0.1000E+01
     -5.931  0.0000E+00  0.0000E+00  0.1000E+01  0.1000E+01
     -5.875  0.0000E+00  0.0000E+00  0.1000E+01  0.1000E+01
     -5.819  0.0000E+00  0.0000E+00  0.1000E+01  0.1000E+01
     -5.763  0.0000E+00  0.0000E+00  0.1000E+01  0.1000E+01
     -5.707  0.0000E+00  0.0000E+00  0.1000E+01  0.1000E+01
     -5.651  0.0000E+00  0.0000E+00  0.1000E+01  0.1000E+01
     -5.595  0.0000E+00  0.0000E+00  0.1000E+01  0.1000E+01
     -5.539  0.0000E+00  0.0000E+00  0.1000E+01  0.1000E+01
     -5.483  0.0000E+00  0.0000E+00  0.1000E+01  0.1000E+01
     -5.427  0.0000E+00  0.0000E+00  0.1000E+01  0.1000E+01
     -5.371  0.0000E+00  0.0000E+00  0.1000E+01  0.1000E+01
     -5.315  0.0000E+00  0.0000E+00  0.1000E+01  0.1000E+01
     -5.259  0.0000E+00  0.0000E+00  0.1000E+01  0.1000E+01
     -5.203  0.0000E+00  0.0000E+00  0.1000E+01  0.1000E+01
     -5.147  0.0000E+00  0.0000E+00  0.1000E+01  0.1000E+01
     -5.091  0.0000E+00  0.0000E+00  0.1000E+01  0.1000E+01
     -5.035  0.0000E+00  0.0000E+00  0.1000E+01  0.1000E+01
     -4.979  0.0000E+00  0.0000E+00  0.1000E+01  0.1000E+01
     -4.923  0.0000E+00  0.0000E+00  0.1000E+01  0.1000E+01
     -4.868  0.0000E+00  0.0000E+00  0.1000E+01  0.1000E+01
     -4.812  0.0000E+00  0.0000E+00  0.1000E+01  0.1000E+01
     -4.756  0.0000E+00  0.0000E+00  0.1000E+01  0.1000E+01
     -4.700  0.0000E+00  0.0000E+00  0.1000E+01  0.1000E+01
     -4.644 -0.1194E-28 -0.1194E-28  0.1000E+01  0.1000E+01
     -4.588 -0.1199E-26 -0.1199E-26  0.1000E+01  0.1000E+01
     -4.532 -0.9096E-25 -0.9096E-25  0.1000E+01  0.1000E+01
     -4.476 -0.5883E-23 -0.5883E-23  0.1000E+01  0.1000E+01
     -4.420 -0.3254E-21 -0.3254E-21  0.1000E+01  0.1000E+01
     -4.364 -0.1539E-19 -0.1539E-19  0.1000E+01  0.1000E+01
     -4.308 -0.6229E-18 -0.6229E-18  0.1000E+01  0.1000E+01
     -4.252 -0.2156E-16 -0.2156E-16  0.1000E+01  0.1000E+01
     -4.196 -0.6381E-15 -0.6381E-15  0.1000E+01  0.1000E+01
     -4.140 -0.1571E-13 -0.1571E-13  0.1000E+01  0.1000E+01
     -4.084 -0.3383E-12 -0.3383E-12  0.1000E+01  0.1000E+01
     -4.028 -0.6245E-11 -0.6245E-11  0.1000E+01  0.1000E+01
     -3.972 -0.9854E-10 -0.9854E-10  0.1000E+01  0.1000E+01
     -3.916 -0.1329E-08 -0.1329E-08  0.1000E+01  0.1000E+01
     -3.861 -0.1531E-07 -0.1531E-07  0.1000E+01  0.1000E+01
     -3.805 -0.1507E-06 -0.1507E-06  0.1000E+01  0.1000E+01
     -3.749 -0.1265E-05 -0.1265E-05  0.1000E+01  0.1000E+01
     -3.693 -0.9062E-05 -0.9062E-05  0.1000E+01  0.1000E+01
     -3.637 -0.5526E-04 -0.5526E-04  0.1000E+01  0.1000E+01
     -3.581 -0.2864E-03 -0.2864E-03  0.1000E+01  0.1000E+01
     -3.525 -0.1258E-02 -0.1258E-02  0.9999E+00  0.9999E+00
     -3.469 -0.4663E-02 -0.4663E-02  0.9996E+00  0.9996E+00
     -3.413 -0.1448E-01 -0.1448E-01  0.9988E+00  0.9988E+00
     -3.357 -0.3719E-01 -0.3719E-01  0.9968E+00  0.9968E+00
     -3.301 -0.7712E-01 -0.7712E-01  0.9924E+00  0.9924E+00
     -3.245 -0.1219E+00 -0.1219E+00  0.9856E+00  0.9856E+00
     -3.189 -0.1203E+00 -0.1203E+00  0.9789E+00  0.9789E+00
     -3.133  0.2719E-01  0.2719E-01  0.9804E+00  0.9804E+00
     -3.077  0.4354E+00  0.4354E+00  0.1005E+01  0.1005E+01
     -3.021  0.1151E+01  0.1151E+01  0.1069E+01  0.1069E+01
     -2.965  0.2070E+01  0.2070E+01  0.1185E+01  0.1185E+01
     -2.909  0.2934E+01  0.2934E+01  0.1349E+01  0.1349E+01
     -2.853  0.3448E+01  0.3448E+01  0.1542E+01  0.1542E+01
     -2.798  0.3457E+01  0.3457E+01  0.1735E+01  0.1735E+01
     -2.742  0.3062E+01  0.3062E+01  0.1907E+01  0.1907E+01
     -2.686  0.2590E+01  0.2590E+01  0.2052E+01  0.2052E+01
     -2.630  0.2409E+01  0.2409E+01  0.2186E+01  0.2186E+01
     -2.574  0.2711E+01  0.2711E+01  0.2338E+01  0.2338E+01
     -2.518  0.3388E+01  0.3388E+01  0.2528E+01  0.2528E+01
     -2.462  0.4084E+01  0.4084E+01  0.2756E+01  0.2756E+01
     -2.406  0.4406E+01  0.4406E+01  0.3003E+01  0.3003E+01
     -2.350  0.4163E+01  0.4163E+01  0.3235E+01  0.3235E+01
     -2.294  0.3486E+01  0.3486E+01  0.3430E+01  0.3430E+01
     -2.238  0.2717E+01  0.2717E+01  0.3582E+01  0.3582E+01
     -2.182  0.2144E+01  0.2144E+01  0.3702E+01  0.3702E+01
     -2.126  0.1802E+01  0.1802E+01  0.3803E+01  0.3803E+01
     -2.070  0.1527E+01  0.1527E+01  0.3889E+01  0.3889E+01
     -2.014  0.1165E+01  0.1165E+01  0.3954E+01  0.3954E+01
     -1.958  0.7174E+00  0.7174E+00  0.3994E+01  0.3994E+01
     -1.902  0.3063E+00  0.3063E+00  0.4011E+01  0.4011E+01
     -1.846  0.3923E-01  0.3923E-01  0.4013E+01  0.4013E+01
     -1.791 -0.7015E-01 -0.7015E-01  0.4009E+01  0.4009E+01
     -1.735 -0.7854E-01 -0.7854E-01  0.4005E+01  0.4005E+01
     -1.679 -0.5094E-01 -0.5094E-01  0.4002E+01  0.4002E+01
     -1.623 -0.2459E-01 -0.2459E-01  0.4001E+01  0.4001E+01
     -1.567 -0.9452E-02 -0.9452E-02  0.4000E+01  0.4000E+01
     -1.511 -0.2978E-02 -0.2978E-02  0.4000E+01  0.4000E+01
     -1.455 -0.7809E-03 -0.7809E-03  0.4000E+01  0.4000E+01
     -1.399 -0.1718E-03 -0.1718E-03  0.4000E+01  0.4000E+01
     -1.343 -0.3191E-04 -0.3191E-04  0.4000E+01  0.4000E+01
     -1.287 -0.5021E-05 -0.5021E-05  0.4000E+01  0.4000E+01
     -1.231 -0.6708E-06 -0.6708E-06  0.4000E+01  0.4000E+01
     -1.175 -0.7627E-07 -0.7627E-07  0.4000E+01  0.4000E+01
     -1.119 -0.7388E-08 -0.7388E-08  0.4000E+01  0.4000E+01
     -1.063 -0.6103E-09 -0.6103E-09  0.4000E+01  0.4000E+01
     -1.007 -0.4304E-10 -0.4304E-10  0.4000E+01  0.4000E+01
     -0.951 -0.2592E-11 -0.2592E-11  0.4000E+01  0.4000E+01
     -0.895 -0.1334E-12 -0.1334E-12  0.4000E+01  0.4000E+01
     -0.839 -0.6001E-14 -0.6001E-14  0.4000E+01  0.4000E+01
     -0.783 -0.1270E-15 -0.1270E-15  0.4000E+01  0.4000E+01
     -0.728 -0.2228E-18 -0.2228E-18  0.4000E+01  0.4000E+01
     -0.672 -0.7233E-17 -0.7233E-17  0.4000E+01  0.4000E+01
     -0.616 -0.1923E-15 -0.1923E-15  0.4000E+01  0.4000E+01
     -0.560 -0.4581E-14 -0.4581E-14  0.4000E+01  0.4000E+01
     -0.504 -0.9164E-13 -0.9164E-13  0.4000E+01  0.4000E+01
     -0.448 -0.1562E-11 -0.1562E-11  0.4000E+01  0.4000E+01
     -0.392 -0.2265E-10 -0.2265E-10  0.4000E+01  0.4000E+01
     -0.336 -0.2791E-09 -0.2791E-09  0.4000E+01  0.4000E+01
     -0.280 -0.2917E-08 -0.2917E-08  0.4000E+01  0.4000E+01
     -0.224 -0.2584E-07 -0.2584E-07  0.4000E+01  0.4000E+01
     -0.168 -0.1937E-06 -0.1937E-06  0.4000E+01  0.4000E+01
     -0.112 -0.1224E-05 -0.1224E-05  0.4000E+01  0.4000E+01
     -0.056 -0.6506E-05 -0.6506E-05  0.4000E+01  0.4000E+01
     -0.000 -0.2892E-04 -0.2892E-04  0.4000E+01  0.4000E+01
      0.056 -0.1067E-03 -0.1067E-03  0.4000E+01  0.4000E+01
      0.112 -0.3229E-03 -0.3229E-03  0.4000E+01  0.4000E+01
      0.168 -0.7830E-03 -0.7830E-03  0.4000E+01  0.4000E+01
      0.224 -0.1450E-02 -0.1450E-02  0.4000E+01  0.4000E+01
      0.279 -0.1778E-02 -0.1778E-02  0.4000E+01  0.4000E+01
      0.335 -0.3987E-03 -0.3987E-03  0.4000E+01  0.4000E+01
      0.391  0.4446E-02  0.4446E-02  0.4000E+01  0.4000E+01
      0.447  0.1327E-01  0.1327E-01  0.4001E+01  0.4001E+01
      0.503  0.2350E-01  0.2350E-01  0.4002E+01  0.4002E+01
      0.559  0.2970E-01  0.2970E-01  0.4004E+01  0.4004E+01
      0.615  0.2704E-01  0.2704E-01  0.4005E+01  0.4005E+01
      0.671  0.1598E-01  0.1598E-01  0.4006E+01  0.4006E+01
      0.727  0.4529E-02  0.4529E-02  0.4006E+01  0.4006E+01
      0.783  0.6154E-02  0.6154E-02  0.4007E+01  0.4007E+01
      0.839  0.3312E-01  0.3312E-01  0.4009E+01  0.4009E+01
      0.895  0.8729E-01  0.8729E-01  0.4013E+01  0.4013E+01
      0.951  0.1536E+00  0.1536E+00  0.4022E+01  0.4022E+01
      1.007  0.2043E+00  0.2043E+00  0.4033E+01  0.4033E+01
      1.063  0.2156E+00  0.2156E+00  0.4046E+01  0.4046E+01
      1.119  0.1860E+00  0.1860E+00  0.4056E+01  0.4056E+01
      1.175  0.1420E+00  0.1420E+00  0.4064E+01  0.4064E+01
      1.231  0.1236E+00  0.1236E+00  0.4071E+01  0.4071E+01
      1.287  0.1568E+00  0.1568E+00  0.4080E+01  0.4080E+01
      1.342  0.2323E+00  0.2323E+00  0.4093E+01  0.4093E+01
      1.398  0.3092E+00  0.3092E+00  0.4110E+01  0.4110E+01
      1.454  0.3459E+00  0.3459E+00  0.4129E+01  0.4129E+01
      1.510  0.3341E+00  0.3341E+00  0.4148E+01  0.4148E+01
      1.566  0.3024E+00  0.3024E+00  0.4165E+01  0.4165E+01
      1.622  0.2868E+00  0.2868E+00  0.4181E+01  0.4181E+01
      1.678  0.2997E+00  0.2997E+00  0.4198E+01  0.4198E+01
      1.734  0.3339E+00  0.3339E+00  0.4216E+01  0.4216E+01
      1.790  0.3980E+00  0.3980E+00  0.4239E+01  0.4239E+01
      1.846  0.5393E+00  0.5393E+00  0.4269E+01  0.4269E+01
      1.902  0.8139E+00  0.8139E+00  0.4314E+01  0.4314E+01
      1.958  0.1219E+01  0.1219E+01  0.4382E+01  0.4382E+01
      2.014  0.1649E+01  0.1649E+01  0.4475E+01  0.4475E+01
      2.070  0.1931E+01  0.1931E+01  0.4583E+01  0.4583E+01
      2.126  0.1935E+01  0.1935E+01  0.4691E+01  0.4691E+01
      2.182  0.1663E+01  0.1663E+01  0.4784E+01  0.4784E+01
      2.238  0.1239E+01  0.1239E+01  0.4853E+01  0.4853E+01
      2.294  0.8278E+00  0.8278E+00  0.4900E+01  0.4900E+01
      2.349  0.5318E+00  0.5318E+00  0.4929E+01  0.4929E+01
      2.405  0.3732E+00  0.3732E+00  0.4950E+01  0.4950E+01
      2.461  0.3328E+00  0.3328E+00  0.4969E+01  0.4969E+01
      2.517  0.4004E+00  0.4004E+00  0.4991E+01  0.4991E+01
      2.573  0.5869E+00  0.5869E+00  0.5024E+01  0.5024E+01
      2.629  0.8942E+00  0.8942E+00  0.5074E+01  0.5074E+01
      2.685  0.1275E+01  0.1275E+01  0.5145E+01  0.5145E+01
      2.741  0.1625E+01  0.1625E+01  0.5236E+01  0.5236E+01
      2.797  0.1830E+01  0.1830E+01  0.5339E+01  0.5339E+01
      2.853  0.1826E+01  0.1826E+01  0.5441E+01  0.5441E+01
      2.909  0.1648E+01  0.1648E+01  0.5533E+01  0.5533E+01
      2.965  0.1401E+01  0.1401E+01  0.5612E+01  0.5612E+01
      3.021  0.1202E+01  0.1202E+01  0.5679E+01  0.5679E+01
      3.077  0.1112E+01  0.1112E+01  0.5741E+01  0.5741E+01
      3.133  0.1105E+01  0.1105E+01  0.5803E+01  0.5803E+01
      3.189  0.1095E+01  0.1095E+01  0.5864E+01  0.5864E+01
      3.245  0.9930E+00  0.9930E+00  0.5920E+01  0.5920E+01
      3.301  0.7735E+00  0.7735E+00  0.5963E+01  0.5963E+01
      3.357  0.4908E+00  0.4908E+00  0.5990E+01  0.5990E+01
      3.412  0.2327E+00  0.2327E+00  0.6003E+01  0.6003E+01
      3.468  0.5974E-01  0.5974E-01  0.6007E+01  0.6007E+01
      3.524 -0.2127E-01 -0.2127E-01  0.6006E+01  0.6006E+01
      3.580 -0.3972E-01 -0.3972E-01  0.6003E+01  0.6003E+01
      3.636 -0.3079E-01 -0.3079E-01  0.6002E+01  0.6002E+01
      3.692 -0.1721E-01 -0.1721E-01  0.6001E+01  0.6001E+01
      3.748 -0.7678E-02 -0.7678E-02  0.6000E+01  0.6000E+01
      3.804 -0.2832E-02 -0.2832E-02  0.6000E+01  0.6000E+01
      3.860 -0.8768E-03 -0.8768E-03  0.6000E+01  0.6000E+01
      3.916 -0.2295E-03 -0.2295E-03  0.6000E+01  0.6000E+01
      3.972 -0.5098E-04 -0.5098E-04  0.6000E+01  0.6000E+01
      4.028 -0.9622E-05 -0.9622E-05  0.6000E+01  0.6000E+01
      4.084 -0.1544E-05 -0.1544E-05  0.6000E+01  0.6000E+01
      4.140 -0.2109E-06 -0.2109E-06  0.6000E+01  0.6000E+01
      4.196 -0.2451E-07 -0.2451E-07  0.6000E+01  0.6000E+01
      4.252 -0.2426E-08 -0.2426E-08  0.6000E+01  0.6000E+01
      4.308 -0.2044E-09 -0.2044E-09  0.6000E+01  0.6000E+01
      4.364 -0.1467E-10 -0.1467E-10  0.6000E+01  0.6000E+01
      4.419 -0.8976E-12 -0.8976E-12  0.6000E+01  0.6000E+01
      4.475 -0.4686E-13 -0.4686E-13  0.6000E+01  0.6000E+01
      4.531 -0.2032E-14 -0.2032E-14  0.6000E+01  0.6000E+01
      4.587 -0.1270E-15 -0.1270E-15  0.6000E+01  0.6000E+01
      4.643  0.0000E+00  0.0000E+00  0.6000E+01  0.6000E+01
      4.699  0.0000E+00  0.0000E+00  0.6000E+01  0.6000E+01
      4.755  0.0000E+00  0.0000E+00  0.6000E+01  0.6000E+01
      4.811  0.0000E+00  0.0000E+00  0.6000E+01  0.6000E+01
      4.867  0.0000E+00  0.0000E+00  0.6000E+01  0.6000E+01
      4.923  0.0000E+00  0.0000E+00  0.6000E+01  0.6000E+01
      4.979  0.0000E+00  0.0000E+00  0.6000E+01  0.6000E+01
      5.035  0.0000E+00  0.0000E+00  0.6000E+01  0.6000E+01
      5.091  0.0000E+00  0.0000E+00  0.6000E+01  0.6000E+01
      5.147  0.0000E+00  0.0000E+00  0.6000E+01  0.6000E+01
      5.203  0.0000E+00  0.0000E+00  0.6000E+01  0.6000E+01
      5.259  0.0000E+00  0.0000E+00  0.6000E+01  0.6000E+01
      5.315  0.0000E+00  0.0000E+00  0.6000E+01  0.6000E+01
      5.31461801    -11.46915567  301     -2.70651646      1.00000000
    -11.469  0.0000E+00  0.0000E+00  0.0000E+00  0.0000E+00  0.0000E+00  0.0000E+00  0.0000E+00  0.0000E+00  0.0000E+00  0.0000E+00  0.0000E+00  0.0000E+00  0.0000E+00  0.0000E+00  0.0000E+00  0.0000E+00  0.0000E+00  0.0000E+00
    -11.413  0.0000E+00  0.0000E+00  0.0000E+00  0.0000E+00  0.0000E+00  0.0000E+00  0.0000E+00  0.0000E+00  0.0000E+00  0.0000E+00  0.0000E+00  0.0000E+00  0.0000E+00  0.0000E+00  0.0000E+00  0.0000E+00  0.0000E+00  0.0000E+00
    -11.357  0.0000E+00  0.0000E+00  0.0000E+00  0.0000E+00  0.0000E+00  0.0000E+00  0.0000E+00  0.0000E+00  0.0000E+00  0.0000E+00  0.0000E+00  0.0000E+00  0.0000E+00  0.0000E+00  0.0000E+00  0.0000E+00  0.0000E+00  0.0000E+00
    -11.301  0.0000E+00  0.0000E+00  0.0000E+00  0.0000E+00  0.0000E+00  0.0000E+00  0.0000E+00  0.0000E+00  0.0000E+00  0.0000E+00  0.0000E+00  0.0000E+00  0.0000E+00  0.0000E+00  0.0000E+00  0.0000E+00  0.0000E+00  0.0000E+00
    -11.245  0.0000E+00  0.0000E+00  0.0000E+00  0.0000E+00  0.0000E+00  0.0000E+00  0.0000E+00  0.0000E+00  0.0000E+00  0.0000E+00  0.0000E+00  0.0000E+00  0.0000E+00  0.0000E+00  0.0000E+00  0.0000E+00  0.0000E+00  0.0000E+00
    -11.189  0.0000E+00  0.0000E+00  0.0000E+00  0.0000E+00  0.0000E+00  0.0000E+00  0.0000E+00  0.0000E+00  0.0000E+00  0.0000E+00  0.0000E+00  0.0000E+00  0.0000E+00  0.0000E+00  0.0000E+00  0.0000E+00  0.0000E+00  0.0000E+00
    -11.133  0.0000E+00  0.0000E+00  0.0000E+00  0.0000E+00  0.0000E+00  0.0000E+00  0.0000E+00  0.0000E+00  0.0000E+00  0.0000E+00  0.0000E+00  0.0000E+00  0.0000E+00  0.0000E+00  0.0000E+00  0.0000E+00  0.0000E+00  0.0000E+00
    -11.078 -0.2242E-28 -0.2242E-28 -0.8190E-34 -0.8190E-34 -0.7650E-34 -0.7650E-34 -0.1049E-33 -0.1049E-33  0.0000E+00  0.0000E+00  0.0000E+00  0.0000E+00  0.0000E+00  0.0000E+00  0.0000E+00  0.0000E+00  0.0000E+00  0.0000E+00
    -11.022 -0.2073E-26 -0.2073E-26 -0.1216E-31 -0.1216E-31 -0.8488E-32 -0.8488E-32 -0.1235E-31 -0.1235E-31  0.0000E+00  0.0000E+00  0.0000E+00  0.0000E+00  0.0000E+00  0.0000E+00  0.0000E+00  0.0000E+00  0.0000E+00  0.0000E+00
    -10.966 -0.1495E-24 -0.1495E-24 -0.9342E-30 -0.9342E-30 -0.6326E-30 -0.6326E-30 -0.9617E-30 -0.9617E-30  0.0000E+00  0.0000E+00  0.0000E+00  0.0000E+00  0.0000E+00  0.0000E+00  0.0000E+00  0.0000E+00  0.0000E+00  0.0000E+00
    -10.910 -0.9227E-23 -0.9227E-23 -0.6136E-28 -0.6136E-28 -0.4038E-28 -0.4038E-28 -0.6377E-28 -0.6377E-28  0.0000E+00  0.0000E+00  0.0000E+00  0.0000E+00  0.0000E+00  0.0000E+00  0.0000E+00  0.0000E+00  0.0000E+00  0.0000E+00
    -10.854 -0.4879E-21 -0.4879E-21 -0.3449E-26 -0.3449E-26 -0.2205E-26 -0.2205E-26 -0.3617E-26 -0.3617E-26  0.0000E+00  0.0000E+00  0.0000E+00  0.0000E+00  0.0000E+00  0.0000E+00  0.0000E+00  0.0000E+00  0.0000E+00  0.0000E+00
    -10.798 -0.2211E-19 -0.2211E-19 -0.1659E-24 -0.1659E-24 -0.1030E-24 -0.1030E-24 -0.1755E-24 -0.1755E-24  0.0000E+00  0.0000E+00  0.0000E+00  0.0000E+00  0.0000E+00  0.0000E+00  0.0000E+00  0.0000E+00  0.0000E+00  0.0000E+00
    -10.742 -0.8585E-18 -0.8585E-18 -0.6832E-23 -0.6832E-23 -0.4117E-23 -0.4117E-23 -0.7283E-23 -0.7283E-23  0.0000E+00  0.0000E+00  0.0000E+00  0.0000E+00  0.0000E+00  0.0000E+00  0.0000E+00  0.0000E+00  0.0000E+00  0.0000E+00
    -10.686 -0.2856E-16 -0.2856E-16 -0.2407E-21 -0.2407E-21 -0.1408E-21 -0.1408E-21 -0.2585E-21 -0.2585E-21  0.0000E+00  0.0000E+00  0.0000E+00  0.0000E+00  0.0000E+00  0.0000E+00  0.0000E+00  0.0000E+00  0.0000E+00  0.0000E+00
    -10.630 -0.7997E-15 -0.7997E-15 -0.7257E-20 -0.7257E-20 -0.4014E-20 -0.4014E-20 -0.7847E-20 -0.7847E-20  0.0000E+00  0.0000E+00  0.0000E+00  0.0000E+00  0.0000E+00  0.0000E+00  0.0000E+00  0.0000E+00  0.0000E+00  0.0000E+00
    -10.574 -0.1931E-13 -0.1931E-13 -0.1820E-18 -0.1820E-18 -0.1001E-18 -0.1001E-18 -0.1975E-18 -0.1975E-18  0.0000E+00  0.0000E+00  0.0000E+00  0.0000E+00  0.0000E+00  0.0000E+00  0.0000E+00  0.0000E+00  0.0000E+00  0.0000E+00
    -10.518 -0.4029E-12 -0.4029E-12 -0.3998E-17 -0.3998E-17 -0.2132E-17 -0.2132E-17 -0.4377E-17 -0.4377E-17  0.0000E+00  0.0000E+00  0.0000E+00  0.0000E+00  0.0000E+00  0.0000E+00  0.0000E+00  0.0000E+00  0.0000E+00  0.0000E+00
    -10.462 -0.7207E-11 -0.7207E-11 -0.7525E-16 -0.7525E-16 -0.3889E-16 -0.3889E-16 -0.8281E-16 -0.8281E-16  0.0000E+00  0.0000E+00  0.0000E+00  0.0000E+00  0.0000E+00  0.0000E+00  0.0000E+00  0.0000E+00  0.0000E+00  0.0000E+00
    -10.406 -0.1104E-09 -0.1104E-09 -0.1211E-14 -0.1211E-14 -0.6061E-15 -0.6061E-15 -0.1338E-14 -0.1338E-14  0.0000E+00  0.0000E+00  0.0000E+00  0.0000E+00  0.0000E+00  0.0000E+00  0.0000E+00  0.0000E+00  0.0000E+00  0.0000E+00
    -10.350 -0.1448E-08 -0.1448E-08 -0.1664E-13 -0.1664E-13 -0.8068E-14 -0.8068E-14 -0.1847E-13 -0.1847E-13  0.0000E+00  0.0000E+00  0.0000E+00  0.0000E+00  0.0000E+00  0.0000E+00  0.0000E+00  0.0000E+00  0.0000E+00  0.0000E+00
    -10.294 -0.1626E-07 -0.1626E-07 -0.1955E-12 -0.1955E-12 -0.9167E-13 -0.9167E-13 -0.2175E-12 -0.2175E-12  0.0000E+00  0.0000E+00  0.0000E+00  0.0000E+00  0.0000E+00  0.0000E+00  0.0000E+00  0.0000E+00  0.0000E+00  0.0000E+00
    -10.238 -0.1561E-06 -0.1561E-06 -0.1959E-11 -0.1959E-11 -0.8885E-12 -0.8885E-12 -0.2185E-11 -0.2185E-11  0.0000E+00  0.0000E+00  0.0000E+00  0.0000E+00  0.0000E+00  0.0000E+00  0.0000E+00  0.0000E+00  0.0000E+00  0.0000E+00
    -10.182 -0.1281E-05 -0.1281E-05 -0.1674E-10 -0.1674E-10 -0.7338E-11 -0.7338E-11 -0.1871E-10 -0.1871E-10  0.0000E+00  0.0000E+00  0.0000E+00  0.0000E+00  0.0000E+00  0.0000E+00  0.0000E+00  0.0000E+00  0.0000E+00  0.0000E+00
    -10.126 -0.8979E-05 -0.8979E-05 -0.1219E-09 -0.1219E-09 -0.5157E-10 -0.5157E-10 -0.1362E-09 -0.1362E-09  0.0000E+00  0.0000E+00  0.0000E+00  0.0000E+00  0.0000E+00  0.0000E+00  0.0000E+00  0.0000E+00  0.0000E+00  0.0000E+00
    -10.071 -0.5362E-04 -0.5362E-04 -0.7541E-09 -0.7541E-09 -0.3077E-09 -0.3077E-09 -0.8427E-09 -0.8427E-09  0.0000E+00  0.0000E+00  0.0000E+00  0.0000E+00  0.0000E+00  0.0000E+00  0.0000E+00  0.0000E+00  0.0000E+00  0.0000E+00
    -10.015 -0.2721E-03 -0.2721E-03 -0.3955E-08 -0.3955E-08 -0.1555E-08 -0.1555E-08 -0.4415E-08 -0.4415E-08  0.0000E+00  0.0000E+00  0.0000E+00  0.0000E+00  0.0000E+00  0.0000E+00  0.0000E+00  0.0000E+00  0.0000E+00  0.0000E+00
     -9.959 -0.1170E-02 -0.1170E-02 -0.1752E-07 -0.1752E-07 -0.6624E-08 -0.6624E-08 -0.1952E-07 -0.1952E-07  0.0000E+00  0.0000E+00  0.0000E+00  0.0000E+00  0.0000E+00  0.0000E+00  0.0000E+00  0.0000E+00  0.0000E+00  0.0000E+00
     -9.903 -0.4231E-02 -0.4231E-02 -0.6515E-07 -0.6515E-07 -0.2363E-07 -0.2363E-07 -0.7232E-07 -0.7232E-07  0.0000E+00  0.0000E+00  0.0000E+00  0.0000E+00  0.0000E+00  0.0000E+00  0.0000E+00  0.0000E+00  0.0000E+00  0.0000E+00
     -9.847 -0.1275E-01 -0.1275E-01 -0.2014E-06 -0.2014E-06 -0.6983E-07 -0.6983E-07 -0.2225E-06 -0.2225E-06  0.0000E+00  0.0000E+00  0.0000E+00  0.0000E+00  0.0000E+00  0.0000E+00  0.0000E+00  0.0000E+00  0.0000E+00  0.0000E+00
     -9.791 -0.3148E-01 -0.3148E-01 -0.5085E-06 -0.5085E-06 -0.1675E-06 -0.1675E-06 -0.5582E-06 -0.5582E-06  0.0000E+00  0.0000E+00  0.0000E+00  0.0000E+00  0.0000E+00  0.0000E+00  0.0000E+00  0.0000E+00  0.0000E+00  0.0000E+00
     -9.735 -0.6132E-01 -0.6132E-01 -0.1013E-05 -0.1013E-05 -0.3125E-06 -0.3125E-06 -0.1101E-05 -0.1101E-05  0.0000E+00  0.0000E+00  0.0000E+00  0.0000E+00  0.0000E+00  0.0000E+00  0.0000E+00  0.0000E+00  0.0000E+00  0.0000E+00
     -9.679 -0.8567E-01 -0.8567E-01 -0.1452E-05 -0.1452E-05 -0.4020E-06 -0.4020E-06 -0.1552E-05 -0.1552E-05  0.0000E+00  0.0000E+00  0.0000E+00  0.0000E+00  0.0000E+00  0.0000E+00  0.0000E+00  0.0000E+00  0.0000E+00  0.0000E+00
     -9.623 -0.5349E-01 -0.5349E-01 -0.9786E-06 -0.9786E-06 -0.1612E-06 -0.1612E-06 -0.9773E-06 -0.9773E-06  0.0000E+00  0.0000E+00  0.0000E+00  0.0000E+00  0.0000E+00  0.0000E+00  0.0000E+00  0.0000E+00  0.0000E+00  0.0000E+00
     -9.567  0.1182E+00  0.1182E+00  0.1816E-05  0.1816E-05  0.8063E-06  0.8063E-06  0.2133E-05  0.2133E-05  0.0000E+00  0.0000E+00  0.0000E+00  0.0000E+00  0.0000E+00  0.0000E+00  0.0000E+00  0.0000E+00  0.0000E+00  0.0000E+00
     -9.511  0.4952E+00  0.4952E+00  0.8068E-05  0.8068E-05  0.2737E-05  0.2737E-05  0.8935E-05  0.8935E-05  0.0000E+00  0.0000E+00  0.0000E+00  0.0000E+00  0.0000E+00  0.0000E+00  0.0000E+00  0.0000E+00  0.0000E+00  0.0000E+00
     -9.455  0.1043E+01  0.1043E+01  0.1720E-04  0.1720E-04  0.5319E-05  0.5319E-05  0.1869E-04  0.1869E-04  0.0000E+00  0.0000E+00  0.0000E+00  0.0000E+00  0.0000E+00  0.0000E+00  0.0000E+00  0.0000E+00  0.0000E+00  0.0000E+00
     -9.399  0.1583E+01  0.1583E+01  0.2615E-04  0.2615E-04  0.7595E-05  0.7595E-05  0.2804E-04  0.2804E-04  0.0000E+00  0.0000E+00  0.0000E+00  0.0000E+00  0.0000E+00  0.0000E+00  0.0000E+00  0.0000E+00  0.0000E+00  0.0000E+00
     -9.343  0.1867E+01  0.1867E+01  0.3073E-04  0.3073E-04  0.8458E-05  0.8458E-05  0.3255E-04  0.3255E-04  0.0000E+00  0.0000E+00  0.0000E+00  0.0000E+00  0.0000E+00  0.0000E+00  0.0000E+00  0.0000E+00  0.0000E+00  0.0000E+00
     -9.287  0.1746E+01  0.1746E+01  0.2847E-04  0.2847E-04  0.7445E-05  0.7445E-05  0.2981E-04  0.2981E-04  0.0000E+00  0.0000E+00  0.0000E+00  0.0000E+00  0.0000E+00  0.0000E+00  0.0000E+00  0.0000E+00  0.0000E+00  0.0000E+00
     -9.231  0.1282E+01  0.1282E+01  0.2061E-04  0.2061E-04  0.5101E-05  0.5101E-05  0.2130E-04  0.2130E-04  0.0000E+00  0.0000E+00  0.0000E+00  0.0000E+00  0.0000E+00  0.0000E+00  0.0000E+00  0.0000E+00  0.0000E+00  0.0000E+00
     -9.175  0.7061E+00  0.7061E+00  0.1107E-04  0.1107E-04  0.2549E-05  0.2549E-05  0.1124E-04  0.1124E-04  0.0000E+00  0.0000E+00  0.0000E+00  0.0000E+00  0.0000E+00  0.0000E+00  0.0000E+00  0.0000E+00  0.0000E+00  0.0000E+00
     -9.119  0.2436E+00  0.2436E+00  0.3596E-05  0.3596E-05  0.6984E-06  0.6984E-06  0.3513E-05  0.3513E-05  0.0000E+00  0.0000E+00  0.0000E+00  0.0000E+00  0.0000E+00  0.0000E+00  0.0000E+00  0.0000E+00  0.0000E+00  0.0000E+00
     -9.063 -0.8843E-02 -0.8843E-02 -0.3499E-06 -0.3499E-06 -0.1962E-06 -0.1962E-06 -0.4792E-06 -0.4792E-06  0.0000E+00  0.0000E+00  0.0000E+00  0.0000E+00  0.0000E+00  0.0000E+00  0.0000E+00  0.0000E+00  0.0000E+00  0.0000E+00
     -9.008 -0.8620E-01 -0.8620E-01 -0.1464E-05 -0.1464E-05 -0.3985E-06 -0.3985E-06 -0.1552E-05 -0.1552E-05  0.0000E+00  0.0000E+00  0.0000E+00  0.0000E+00  0.0000E+00  0.0000E+00  0.0000E+00  0.0000E+00  0.0000E+00  0.0000E+00
     -8.952 -0.7493E-01 -0.7493E-01 -0.1208E-05 -0.1208E-05 -0.2994E-06 -0.2994E-06 -0.1248E-05 -0.1248E-05  0.0000E+00  0.0000E+00  0.0000E+00  0.0000E+00  0.0000E+00  0.0000E+00  0.0000E+00  0.0000E+00  0.0000E+00  0.0000E+00
     -8.896 -0.4270E-01 -0.4270E-01 -0.6680E-06 -0.6680E-06 -0.1576E-06 -0.1576E-06 -0.6812E-06 -0.6812E-06  0.0000E+00  0.0000E+00  0.0000E+00  0.0000E+00  0.0000E+00  0.0000E+00  0.0000E+00  0.0000E+00  0.0000E+00  0.0000E+00
     -8.840 -0.1867E-01 -0.1867E-01 -0.2851E-06 -0.2851E-06 -0.6491E-07 -0.6491E-07 -0.2879E-06 -0.2879E-06  0.0000E+00  0.0000E+00  0.0000E+00  0.0000E+00  0.0000E+00  0.0000E+00  0.0000E+00  0.0000E+00  0.0000E+00  0.0000E+00
     -8.784 -0.6587E-02 -0.6587E-02 -0.9840E-07 -0.9840E-07 -0.2178E-07 -0.2178E-07 -0.9859E-07 -0.9859E-07  0.0000E+00  0.0000E+00  0.0000E+00  0.0000E+00  0.0000E+00  0.0000E+00  0.0000E+00  0.0000E+00  0.0000E+00  0.0000E+00
     -8.728 -0.1920E-02 -0.1920E-02 -0.2808E-07 -0.2808E-07 -0.6065E-08 -0.6065E-08 -0.2794E-07 -0.2794E-07  0.0000E+00  0.0000E+00  0.0000E+00  0.0000E+00  0.0000E+00  0.0000E+00  0.0000E+00  0.0000E+00  0.0000E+00  0.0000E+00
     -8.672 -0.4677E-03 -0.4677E-03 -0.6705E-08 -0.6705E-08 -0.1418E-08 -0.1418E-08 -0.6628E-08 -0.6628E-08  0.0000E+00  0.0000E+00  0.0000E+00  0.0000E+00  0.0000E+00  0.0000E+00  0.0000E+00  0.0000E+00  0.0000E+00  0.0000E+00