   12   12    1    1
  0.1325599E+02  0.5418318E-09  0.5418318E-09  0.5418318E-09  0.5000000E-15
  1.000000000000000E-004
  CAR 
 unknown system                          
    112      4     72
 
  0.0000000E+00  0.0000000E+00  0.0000000E+00  0.1250000E+00
    1      -82.320918   1.000000
    2      -82.320918   1.000000
    3      -82.320787   1.000000
    4      -82.320496   1.000000
    5      -46.857605   1.000000
    6      -46.857550   1.000000
    7      -46.857550   1.000000
    8      -46.857361   1.000000
    9      -46.857361   1.000000
   10      -46.855854   1.000000
   11      -46.855768   1.000000
   12      -46.855768   1.000000
   13      -46.615321   1.000000
   14      -46.615321   1.000000
   15      -46.615172   1.000000
   16      -46.614220   1.000000
   17       -9.416889   1.000000
   18       -7.102991   1.000000
   19       -7.102989   1.000000
   20       -7.102989   1.000000
   21       -4.401137   1.000000
   22       -4.401135   1.000000
   23       -4.401135   1.000000
   24       -2.825253   1.000000
   25        1.888226   1.000000
   26        1.888233   1.000000
   27        1.888233   1.000000
   28        2.713508   1.000000
   29        2.713508   1.000000
   30        2.713509   1.000000
   31        3.622220   1.000000
   32        3.622220   1.000000
   33        3.724832   1.000000
   34        3.724832   1.000000
   35        3.724845   1.000000
   36        3.958891   1.000000
   37        5.044218   1.000000
   38        5.044218   1.000000
   39        5.044222   1.000000
   40        5.619983   1.000000
   41        5.619983   1.000000
   42        6.352728   1.000000
   43        6.352728   1.000000
   44        6.352730   1.000000
   45        7.475138   1.000000
   46        7.475175   1.000000
   47        7.475175   1.000000
   48        7.844848   1.000000
   49        7.844848   1.000000
   50        7.862265   1.000000
   51        7.862265   1.000000
   52        7.862310   1.000000
   53        7.937078   1.000000
   54        8.292015   1.000000
   55        8.292067   1.000000
   56        8.292067   1.000000
   57       10.575175   0.000000
   58       12.096633   0.000000
   59       12.096686   0.000000
   60       12.096686   0.000000
   61       13.347421   0.000000
   62       13.347422   0.000000
   63       13.347422   0.000000
   64       13.711777   0.000000
   65       13.711790   0.000000
   66       13.711790   0.000000
   67       14.625464   0.000000
   68       14.625464   0.000000
   69       17.210621   0.000000
   70       17.210623   0.000000
   71       17.210623   0.000000
   72       18.714051   0.000000
 
  0.5000000E+00  0.0000000E+00  0.0000000E+00  0.3750000E+00
    1      -82.320739   1.000000
    2      -82.320668   1.000000
    3      -82.320479   1.000000
    4      -82.320326   1.000000
    5      -46.856550   1.000000
    6      -46.856451   1.000000
    7      -46.856031   1.000000
    8      -46.855926   1.000000
    9      -46.854410   1.000000
   10      -46.854303   1.000000
   11      -46.853994   1.000000
   12      -46.853879   1.000000
   13      -46.613626   1.000000
   14      -46.613544   1.000000
   15      -46.613158   1.000000
   16      -46.613030   1.000000
   17       -8.476938   1.000000
   18       -8.476936   1.000000
   19       -6.986152   1.000000
   20       -6.986150   1.000000
   21       -4.191170   1.000000
   22       -4.191169   1.000000
   23       -3.866165   1.000000
   24       -3.866164   1.000000
   25        1.320502   1.000000
   26        1.320506   1.000000
   27        1.619609   1.000000
   28        1.619612   1.000000
   29        2.547837   1.000000
   30        2.547845   1.000000
   31        3.860259   1.000000
   32        3.860270   1.000000
   33        3.891087   1.000000
   34        3.891090   1.000000
   35        5.039227   1.000000
   36        5.039242   1.000000
   37        5.602193   1.000000
   38        5.602209   1.000000
   39        5.640158   1.000000
   40        5.640182   1.000000
   41        6.116338   1.000000
   42        6.116367   1.000000
   43        6.281123   1.000000
   44        6.281132   1.000000
   45        7.365710   1.000000
   46        7.365776   1.000000
   47        7.812796   1.000000
   48        7.812873   1.000000
   49        7.923802   1.000000
   50        7.923871   1.000000
   51        8.057891   1.000000
   52        8.057961   1.000000
   53        8.116942   1.000000
   54        8.117004   1.000000
   55        8.224797   1.000000
   56        8.224865   1.000000
   57       11.826154   0.000000
   58       11.826192   0.000000
   59       12.106481   0.000000
   60       12.106504   0.000000
   61       12.968487   0.000000
   62       12.968520   0.000000
   63       13.124643   0.000000
   64       13.124668   0.000000
   65       13.318271   0.000000
   66       13.318304   0.000000
   67       14.149879   0.000000
   68       14.149913   0.000000
   69       16.467100   0.000000
   70       16.467105   0.000000
   71       16.569658   0.000000
   72       16.569658   0.000000
 
  0.5000000E+00  0.5000000E+00  0.0000000E+00  0.3750000E+00
    1      -82.320522   1.000000
    2      -82.320522   1.000000
    3      -82.320522   1.000000
    4      -82.320298   1.000000
    5      -46.855272   1.000000
    6      -46.855271   1.000000
    7      -46.855263   1.000000
    8      -46.855071   1.000000
    9      -46.854190   1.000000
   10      -46.854189   1.000000
   11      -46.854176   1.000000
   12      -46.853985   1.000000
   13      -46.612962   1.000000
   14      -46.612962   1.000000
   15      -46.612962   1.000000
   16      -46.612752   1.000000
   17       -7.735524   1.000000
   18       -7.735521   1.000000
   19       -7.735521   1.000000
   20       -7.735520   1.000000
   21       -4.176353   1.000000
   22       -4.176350   1.000000
   23       -4.176350   1.000000
   24       -4.176347   1.000000
   25        1.246589   1.000000
   26        1.246592   1.000000
   27        1.246593   1.000000
   28        1.246597   1.000000
   29        3.387641   1.000000
   30        3.387642   1.000000
   31        3.387647   1.000000
   32        3.387662   1.000000
   33        4.900474   1.000000
   34        4.900476   1.000000
   35        4.900476   1.000000
   36        4.900481   1.000000
   37        5.609027   1.000000
   38        5.609029   1.000000
   39        5.609036   1.000000
   40        5.609063   1.000000
   41        6.435380   1.000000
   42        6.435381   1.000000
   43        6.435387   1.000000
   44        6.435433   1.000000
   45        7.505340   1.000000
   46        7.505341   1.000000
   47        7.505374   1.000000
   48        7.505444   1.000000
   49        7.910419   1.000000
   50        7.910419   1.000000
   51        7.910449   1.000000
   52        7.910524   1.000000
   53        8.219085   1.000000
   54        8.219086   1.000000
   55        8.219087   1.000000
   56        8.219178   1.000000
   57       12.044394   0.000000
   58       12.044400   0.000000
   59       12.044413   0.000000
   60       12.044426   0.000000
   61       12.674014   0.000000
   62       12.674019   0.000000
   63       12.674024   0.000000
   64       12.674126   0.000000
   65       13.672250   0.000000
   66       13.672255   0.000000
   67       13.672258   0.000000
   68       13.672308   0.000000
   69       17.131958   0.000000
   70       17.131963   0.000000
   71       17.131976   0.000000
   72       17.131986   0.000000
 
  0.5000000E+00  0.5000000E+00  0.5000000E+00  0.1250000E+00
    1      -82.320525   1.000000
    2      -82.320525   1.000000
    3      -82.320525   1.000000
    4      -82.320301   1.000000
    5      -46.855817   1.000000
    6      -46.855815   1.000000
    7      -46.855718   1.000000
    8      -46.855718   1.000000
    9      -46.854414   1.000000
   10      -46.854414   1.000000
   11      -46.854299   1.000000
   12      -46.854299   1.000000
   13      -46.613447   1.000000
   14      -46.613447   1.000000
   15      -46.613447   1.000000
   16      -46.613237   1.000000
   17       -7.515079   1.000000
   18       -7.515076   1.000000
   19       -7.515075   1.000000
   20       -7.515075   1.000000
   21       -4.748890   1.000000
   22       -4.748887   1.000000
   23       -4.748887   1.000000
   24       -4.748883   1.000000
   25        2.032470   1.000000
   26        2.032470   1.000000
   27        2.032473   1.000000
   28        2.032473   1.000000
   29        3.369659   1.000000
   30        3.369660   1.000000
   31        3.369662   1.000000
   32        3.369662   1.000000
   33        4.262177   1.000000
   34        4.262177   1.000000
   35        4.262189   1.000000
   36        4.262189   1.000000
   37        6.543717   1.000000
   38        6.543717   1.000000
   39        6.543723   1.000000
   40        6.543723   1.000000
   41        6.905794   1.000000
   42        6.905794   1.000000
   43        6.905795   1.000000
   44        6.905803   1.000000
   45        7.196686   1.000000
   46        7.196689   1.000000
   47        7.196747   1.000000
   48        7.196747   1.000000
   49        7.408748   1.000000
   50        7.408748   1.000000
   51        7.408806   1.000000
   52        7.408806   1.000000
   53        7.725131   1.000000
   54        7.725137   1.000000
   55        7.725137   1.000000
   56        7.725272   1.000000
   57       12.108033   0.000000
   58       12.108040   0.000000
   59       12.108100   0.000000
   60       12.108100   0.000000
   61       12.992326   0.000000
   62       12.992326   0.000000
   63       12.992379   0.000000
   64       12.992379   0.000000
   65       13.409810   0.000000
   66       13.409813   0.000000
   67       13.409838   0.000000
   68       13.409838   0.000000
   69       17.344949   0.000000
   70       17.344951   0.000000
   71       17.344951   0.000000
   72       17.344951   0.000000
